V -t * -v 1.0a5 -a 0
A -t * -n 1 -p 0 -o 0x7fffffff -c 30 -a 1
A -t * -h 1 -m 1073741823 -s 0
n -t * -a 4 -s 4 -S UP -v circle -c black -i black
n -t * -a 0 -s 0 -S UP -v circle -c black -i black
n -t * -a 1 -s 1 -S UP -v circle -c black -i black
n -t * -a 2 -s 2 -S UP -v circle -c black -i black
n -t * -a 3 -s 3 -S UP -v circle -c black -i black
l -t * -s 0 -d 1 -S UP -r 100000000 -D 0.01 -c black -o right-down
l -t * -s 2 -d 1 -S UP -r 10000000 -D 0.01 -c black -o left-down
l -t * -s 1 -d 3 -S UP -r 100000000 -D 0.01 -c black -o left-down
l -t * -s 1 -d 4 -S UP -r 10000000 -D 0.01 -c black -o right-down
+ -t 1 -s 3 -d 1 -p tcp -e 40 -c 0 -i 0 -a 0 -x {3.0 4.0 0 ------- null}
- -t 1 -s 3 -d 1 -p tcp -e 40 -c 0 -i 0 -a 0 -x {3.0 4.0 0 ------- null}
h -t 1 -s 3 -d 1 -p tcp -e 40 -c 0 -i 0 -a 0 -x {3.0 4.0 -1 ------- null}
+ -t 1 -s 0 -d 1 -p tcp -e 40 -c 0 -i 1 -a 0 -x {0.0 2.0 0 ------- null}
- -t 1 -s 0 -d 1 -p tcp -e 40 -c 0 -i 1 -a 0 -x {0.0 2.0 0 ------- null}
h -t 1 -s 0 -d 1 -p tcp -e 40 -c 0 -i 1 -a 0 -x {0.0 2.0 -1 ------- null}
r -t 1.0100032 -s 3 -d 1 -p tcp -e 40 -c 0 -i 0 -a 0 -x {3.0 4.0 0 ------- null}
+ -t 1.0100032 -s 1 -d 4 -p tcp -e 40 -c 0 -i 0 -a 0 -x {3.0 4.0 0 ------- null}
- -t 1.0100032 -s 1 -d 4 -p tcp -e 40 -c 0 -i 0 -a 0 -x {3.0 4.0 0 ------- null}
h -t 1.0100032 -s 1 -d 4 -p tcp -e 40 -c 0 -i 0 -a 0 -x {3.0 4.0 -1 ------- null}
r -t 1.0100032 -s 0 -d 1 -p tcp -e 40 -c 0 -i 1 -a 0 -x {0.0 2.0 0 ------- null}
+ -t 1.0100032 -s 1 -d 2 -p tcp -e 40 -c 0 -i 1 -a 0 -x {0.0 2.0 0 ------- null}
- -t 1.0100032 -s 1 -d 2 -p tcp -e 40 -c 0 -i 1 -a 0 -x {0.0 2.0 0 ------- null}
h -t 1.0100032 -s 1 -d 2 -p tcp -e 40 -c 0 -i 1 -a 0 -x {0.0 2.0 -1 ------- null}
r -t 1.0200352 -s 1 -d 4 -p tcp -e 40 -c 0 -i 0 -a 0 -x {3.0 4.0 0 ------- null}
+ -t 1.0200352 -s 4 -d 1 -p ack -e 40 -c 0 -i 2 -a 0 -x {4.0 3.0 0 ------- null}
- -t 1.0200352 -s 4 -d 1 -p ack -e 40 -c 0 -i 2 -a 0 -x {4.0 3.0 0 ------- null}
h -t 1.0200352 -s 4 -d 1 -p ack -e 40 -c 0 -i 2 -a 0 -x {4.0 3.0 -1 ------- null}
r -t 1.0200352 -s 1 -d 2 -p tcp -e 40 -c 0 -i 1 -a 0 -x {0.0 2.0 0 ------- null}
+ -t 1.0200352 -s 2 -d 1 -p ack -e 40 -c 0 -i 3 -a 0 -x {2.0 0.0 0 ------- null}
- -t 1.0200352 -s 2 -d 1 -p ack -e 40 -c 0 -i 3 -a 0 -x {2.0 0.0 0 ------- null}
h -t 1.0200352 -s 2 -d 1 -p ack -e 40 -c 0 -i 3 -a 0 -x {2.0 0.0 -1 ------- null}
r -t 1.0300672 -s 4 -d 1 -p ack -e 40 -c 0 -i 2 -a 0 -x {4.0 3.0 0 ------- null}
+ -t 1.0300672 -s 1 -d 3 -p ack -e 40 -c 0 -i 2 -a 0 -x {4.0 3.0 0 ------- null}
- -t 1.0300672 -s 1 -d 3 -p ack -e 40 -c 0 -i 2 -a 0 -x {4.0 3.0 0 ------- null}
h -t 1.0300672 -s 1 -d 3 -p ack -e 40 -c 0 -i 2 -a 0 -x {4.0 3.0 -1 ------- null}
r -t 1.0300672 -s 2 -d 1 -p ack -e 40 -c 0 -i 3 -a 0 -x {2.0 0.0 0 ------- null}
+ -t 1.0300672 -s 1 -d 0 -p ack -e 40 -c 0 -i 3 -a 0 -x {2.0 0.0 0 ------- null}
- -t 1.0300672 -s 1 -d 0 -p ack -e 40 -c 0 -i 3 -a 0 -x {2.0 0.0 0 ------- null}
h -t 1.0300672 -s 1 -d 0 -p ack -e 40 -c 0 -i 3 -a 0 -x {2.0 0.0 -1 ------- null}
r -t 1.0400704 -s 1 -d 3 -p ack -e 40 -c 0 -i 2 -a 0 -x {4.0 3.0 0 ------- null}
+ -t 1.0400704 -s 3 -d 1 -p tcp -e 1540 -c 0 -i 4 -a 0 -x {3.0 4.0 1 ------- null}
- -t 1.0400704 -s 3 -d 1 -p tcp -e 1540 -c 0 -i 4 -a 0 -x {3.0 4.0 1 ------- null}
h -t 1.0400704 -s 3 -d 1 -p tcp -e 1540 -c 0 -i 4 -a 0 -x {3.0 4.0 -1 ------- null}
+ -t 1.0400704 -s 3 -d 1 -p tcp -e 1540 -c 0 -i 5 -a 0 -x {3.0 4.0 2 ------- null}
r -t 1.0400704 -s 1 -d 0 -p ack -e 40 -c 0 -i 3 -a 0 -x {2.0 0.0 0 ------- null}
+ -t 1.0400704 -s 0 -d 1 -p tcp -e 1540 -c 0 -i 6 -a 0 -x {0.0 2.0 1 ------- null}
- -t 1.0400704 -s 0 -d 1 -p tcp -e 1540 -c 0 -i 6 -a 0 -x {0.0 2.0 1 ------- null}
h -t 1.0400704 -s 0 -d 1 -p tcp -e 1540 -c 0 -i 6 -a 0 -x {0.0 2.0 -1 ------- null}
+ -t 1.0400704 -s 0 -d 1 -p tcp -e 1540 -c 0 -i 7 -a 0 -x {0.0 2.0 2 ------- null}
- -t 1.0401936 -s 3 -d 1 -p tcp -e 1540 -c 0 -i 5 -a 0 -x {3.0 4.0 2 ------- null}
h -t 1.0401936 -s 3 -d 1 -p tcp -e 1540 -c 0 -i 5 -a 0 -x {3.0 4.0 -1 ------- null}
- -t 1.0401936 -s 0 -d 1 -p tcp -e 1540 -c 0 -i 7 -a 0 -x {0.0 2.0 2 ------- null}
h -t 1.0401936 -s 0 -d 1 -p tcp -e 1540 -c 0 -i 7 -a 0 -x {0.0 2.0 -1 ------- null}
r -t 1.0501936 -s 3 -d 1 -p tcp -e 1540 -c 0 -i 4 -a 0 -x {3.0 4.0 1 ------- null}
+ -t 1.0501936 -s 1 -d 4 -p tcp -e 1540 -c 0 -i 4 -a 0 -x {3.0 4.0 1 ------- null}
- -t 1.0501936 -s 1 -d 4 -p tcp -e 1540 -c 0 -i 4 -a 0 -x {3.0 4.0 1 ------- null}
h -t 1.0501936 -s 1 -d 4 -p tcp -e 1540 -c 0 -i 4 -a 0 -x {3.0 4.0 -1 ------- null}
r -t 1.0501936 -s 0 -d 1 -p tcp -e 1540 -c 0 -i 6 -a 0 -x {0.0 2.0 1 ------- null}
+ -t 1.0501936 -s 1 -d 2 -p tcp -e 1540 -c 0 -i 6 -a 0 -x {0.0 2.0 1 ------- null}
- -t 1.0501936 -s 1 -d 2 -p tcp -e 1540 -c 0 -i 6 -a 0 -x {0.0 2.0 1 ------- null}
h -t 1.0501936 -s 1 -d 2 -p tcp -e 1540 -c 0 -i 6 -a 0 -x {0.0 2.0 -1 ------- null}
r -t 1.0503168 -s 3 -d 1 -p tcp -e 1540 -c 0 -i 5 -a 0 -x {3.0 4.0 2 ------- null}
+ -t 1.0503168 -s 1 -d 4 -p tcp -e 1540 -c 0 -i 5 -a 0 -x {3.0 4.0 2 ------- null}
r -t 1.0503168 -s 0 -d 1 -p tcp -e 1540 -c 0 -i 7 -a 0 -x {0.0 2.0 2 ------- null}
+ -t 1.0503168 -s 1 -d 2 -p tcp -e 1540 -c 0 -i 7 -a 0 -x {0.0 2.0 2 ------- null}
- -t 1.0514256 -s 1 -d 4 -p tcp -e 1540 -c 0 -i 5 -a 0 -x {3.0 4.0 2 ------- null}
h -t 1.0514256 -s 1 -d 4 -p tcp -e 1540 -c 0 -i 5 -a 0 -x {3.0 4.0 -1 ------- null}
- -t 1.0514256 -s 1 -d 2 -p tcp -e 1540 -c 0 -i 7 -a 0 -x {0.0 2.0 2 ------- null}
h -t 1.0514256 -s 1 -d 2 -p tcp -e 1540 -c 0 -i 7 -a 0 -x {0.0 2.0 -1 ------- null}
r -t 1.0614256 -s 1 -d 4 -p tcp -e 1540 -c 0 -i 4 -a 0 -x {3.0 4.0 1 ------- null}
+ -t 1.0614256 -s 4 -d 1 -p ack -e 40 -c 0 -i 8 -a 0 -x {4.0 3.0 1 ------- null}
- -t 1.0614256 -s 4 -d 1 -p ack -e 40 -c 0 -i 8 -a 0 -x {4.0 3.0 1 ------- null}
h -t 1.0614256 -s 4 -d 1 -p ack -e 40 -c 0 -i 8 -a 0 -x {4.0 3.0 -1 ------- null}
r -t 1.0614256 -s 1 -d 2 -p tcp -e 1540 -c 0 -i 6 -a 0 -x {0.0 2.0 1 ------- null}
+ -t 1.0614256 -s 2 -d 1 -p ack -e 40 -c 0 -i 9 -a 0 -x {2.0 0.0 1 ------- null}
- -t 1.0614256 -s 2 -d 1 -p ack -e 40 -c 0 -i 9 -a 0 -x {2.0 0.0 1 ------- null}
h -t 1.0614256 -s 2 -d 1 -p ack -e 40 -c 0 -i 9 -a 0 -x {2.0 0.0 -1 ------- null}
r -t 1.0626576 -s 1 -d 4 -p tcp -e 1540 -c 0 -i 5 -a 0 -x {3.0 4.0 2 ------- null}
+ -t 1.0626576 -s 4 -d 1 -p ack -e 40 -c 0 -i 10 -a 0 -x {4.0 3.0 2 ------- null}
- -t 1.0626576 -s 4 -d 1 -p ack -e 40 -c 0 -i 10 -a 0 -x {4.0 3.0 2 ------- null}
h -t 1.0626576 -s 4 -d 1 -p ack -e 40 -c 0 -i 10 -a 0 -x {4.0 3.0 -1 ------- null}
r -t 1.0626576 -s 1 -d 2 -p tcp -e 1540 -c 0 -i 7 -a 0 -x {0.0 2.0 2 ------- null}
+ -t 1.0626576 -s 2 -d 1 -p ack -e 40 -c 0 -i 11 -a 0 -x {2.0 0.0 2 ------- null}
- -t 1.0626576 -s 2 -d 1 -p ack -e 40 -c 0 -i 11 -a 0 -x {2.0 0.0 2 ------- null}
h -t 1.0626576 -s 2 -d 1 -p ack -e 40 -c 0 -i 11 -a 0 -x {2.0 0.0 -1 ------- null}
r -t 1.0714576 -s 4 -d 1 -p ack -e 40 -c 0 -i 8 -a 0 -x {4.0 3.0 1 ------- null}
+ -t 1.0714576 -s 1 -d 3 -p ack -e 40 -c 0 -i 8 -a 0 -x {4.0 3.0 1 ------- null}
- -t 1.0714576 -s 1 -d 3 -p ack -e 40 -c 0 -i 8 -a 0 -x {4.0 3.0 1 ------- null}
h -t 1.0714576 -s 1 -d 3 -p ack -e 40 -c 0 -i 8 -a 0 -x {4.0 3.0 -1 ------- null}
r -t 1.0714576 -s 2 -d 1 -p ack -e 40 -c 0 -i 9 -a 0 -x {2.0 0.0 1 ------- null}
+ -t 1.0714576 -s 1 -d 0 -p ack -e 40 -c 0 -i 9 -a 0 -x {2.0 0.0 1 ------- null}
- -t 1.0714576 -s 1 -d 0 -p ack -e 40 -c 0 -i 9 -a 0 -x {2.0 0.0 1 ------- null}
h -t 1.0714576 -s 1 -d 0 -p ack -e 40 -c 0 -i 9 -a 0 -x {2.0 0.0 -1 ------- null}
r -t 1.0726896 -s 4 -d 1 -p ack -e 40 -c 0 -i 10 -a 0 -x {4.0 3.0 2 ------- null}
+ -t 1.0726896 -s 1 -d 3 -p ack -e 40 -c 0 -i 10 -a 0 -x {4.0 3.0 2 ------- null}
- -t 1.0726896 -s 1 -d 3 -p ack -e 40 -c 0 -i 10 -a 0 -x {4.0 3.0 2 ------- null}
h -t 1.0726896 -s 1 -d 3 -p ack -e 40 -c 0 -i 10 -a 0 -x {4.0 3.0 -1 ------- null}
r -t 1.0726896 -s 2 -d 1 -p ack -e 40 -c 0 -i 11 -a 0 -x {2.0 0.0 2 ------- null}
+ -t 1.0726896 -s 1 -d 0 -p ack -e 40 -c 0 -i 11 -a 0 -x {2.0 0.0 2 ------- null}
- -t 1.0726896 -s 1 -d 0 -p ack -e 40 -c 0 -i 11 -a 0 -x {2.0 0.0 2 ------- null}
h -t 1.0726896 -s 1 -d 0 -p ack -e 40 -c 0 -i 11 -a 0 -x {2.0 0.0 -1 ------- null}
r -t 1.0814608 -s 1 -d 3 -p ack -e 40 -c 0 -i 8 -a 0 -x {4.0 3.0 1 ------- null}
+ -t 1.0814608 -s 3 -d 1 -p tcp -e 1540 -c 0 -i 12 -a 0 -x {3.0 4.0 3 ------- null}
- -t 1.0814608 -s 3 -d 1 -p tcp -e 1540 -c 0 -i 12 -a 0 -x {3.0 4.0 3 ------- null}
h -t 1.0814608 -s 3 -d 1 -p tcp -e 1540 -c 0 -i 12 -a 0 -x {3.0 4.0 -1 ------- null}
+ -t 1.0814608 -s 3 -d 1 -p tcp -e 1540 -c 0 -i 13 -a 0 -x {3.0 4.0 4 ------- null}
r -t 1.0814608 -s 1 -d 0 -p ack -e 40 -c 0 -i 9 -a 0 -x {2.0 0.0 1 ------- null}
+ -t 1.0814608 -s 0 -d 1 -p tcp -e 1540 -c 0 -i 14 -a 0 -x {0.0 2.0 3 ------- null}
- -t 1.0814608 -s 0 -d 1 -p tcp -e 1540 -c 0 -i 14 -a 0 -x {0.0 2.0 3 ------- null}
h -t 1.0814608 -s 0 -d 1 -p tcp -e 1540 -c 0 -i 14 -a 0 -x {0.0 2.0 -1 ------- null}
+ -t 1.0814608 -s 0 -d 1 -p tcp -e 1540 -c 0 -i 15 -a 0 -x {0.0 2.0 4 ------- null}
- -t 1.081584 -s 3 -d 1 -p tcp -e 1540 -c 0 -i 13 -a 0 -x {3.0 4.0 4 ------- null}
h -t 1.081584 -s 3 -d 1 -p tcp -e 1540 -c 0 -i 13 -a 0 -x {3.0 4.0 -1 ------- null}
- -t 1.081584 -s 0 -d 1 -p tcp -e 1540 -c 0 -i 15 -a 0 -x {0.0 2.0 4 ------- null}
h -t 1.081584 -s 0 -d 1 -p tcp -e 1540 -c 0 -i 15 -a 0 -x {0.0 2.0 -1 ------- null}
r -t 1.0826928 -s 1 -d 3 -p ack -e 40 -c 0 -i 10 -a 0 -x {4.0 3.0 2 ------- null}
+ -t 1.0826928 -s 3 -d 1 -p tcp -e 1540 -c 0 -i 16 -a 0 -x {3.0 4.0 5 ------- null}
- -t 1.0826928 -s 3 -d 1 -p tcp -e 1540 -c 0 -i 16 -a 0 -x {3.0 4.0 5 ------- null}
h -t 1.0826928 -s 3 -d 1 -p tcp -e 1540 -c 0 -i 16 -a 0 -x {3.0 4.0 -1 ------- null}
+ -t 1.0826928 -s 3 -d 1 -p tcp -e 1540 -c 0 -i 17 -a 0 -x {3.0 4.0 6 ------- null}
r -t 1.0826928 -s 1 -d 0 -p ack -e 40 -c 0 -i 11 -a 0 -x {2.0 0.0 2 ------- null}
+ -t 1.0826928 -s 0 -d 1 -p tcp -e 1540 -c 0 -i 18 -a 0 -x {0.0 2.0 5 ------- null}
- -t 1.0826928 -s 0 -d 1 -p tcp -e 1540 -c 0 -i 18 -a 0 -x {0.0 2.0 5 ------- null}
h -t 1.0826928 -s 0 -d 1 -p tcp -e 1540 -c 0 -i 18 -a 0 -x {0.0 2.0 -1 ------- null}
+ -t 1.0826928 -s 0 -d 1 -p tcp -e 1540 -c 0 -i 19 -a 0 -x {0.0 2.0 6 ------- null}
- -t 1.082816 -s 3 -d 1 -p tcp -e 1540 -c 0 -i 17 -a 0 -x {3.0 4.0 6 ------- null}
h -t 1.082816 -s 3 -d 1 -p tcp -e 1540 -c 0 -i 17 -a 0 -x {3.0 4.0 -1 ------- null}
- -t 1.082816 -s 0 -d 1 -p tcp -e 1540 -c 0 -i 19 -a 0 -x {0.0 2.0 6 ------- null}
h -t 1.082816 -s 0 -d 1 -p tcp -e 1540 -c 0 -i 19 -a 0 -x {0.0 2.0 -1 ------- null}
r -t 1.091584 -s 3 -d 1 -p tcp -e 1540 -c 0 -i 12 -a 0 -x {3.0 4.0 3 ------- null}
+ -t 1.091584 -s 1 -d 4 -p tcp -e 1540 -c 0 -i 12 -a 0 -x {3.0 4.0 3 ------- null}
- -t 1.091584 -s 1 -d 4 -p tcp -e 1540 -c 0 -i 12 -a 0 -x {3.0 4.0 3 ------- null}
h -t 1.091584 -s 1 -d 4 -p tcp -e 1540 -c 0 -i 12 -a 0 -x {3.0 4.0 -1 ------- null}
r -t 1.091584 -s 0 -d 1 -p tcp -e 1540 -c 0 -i 14 -a 0 -x {0.0 2.0 3 ------- null}
+ -t 1.091584 -s 1 -d 2 -p tcp -e 1540 -c 0 -i 14 -a 0 -x {0.0 2.0 3 ------- null}
- -t 1.091584 -s 1 -d 2 -p tcp -e 1540 -c 0 -i 14 -a 0 -x {0.0 2.0 3 ------- null}
h -t 1.091584 -s 1 -d 2 -p tcp -e 1540 -c 0 -i 14 -a 0 -x {0.0 2.0 -1 ------- null}
r -t 1.0917072 -s 3 -d 1 -p tcp -e 1540 -c 0 -i 13 -a 0 -x {3.0 4.0 4 ------- null}
+ -t 1.0917072 -s 1 -d 4 -p tcp -e 1540 -c 0 -i 13 -a 0 -x {3.0 4.0 4 ------- null}
r -t 1.0917072 -s 0 -d 1 -p tcp -e 1540 -c 0 -i 15 -a 0 -x {0.0 2.0 4 ------- null}
+ -t 1.0917072 -s 1 -d 2 -p tcp -e 1540 -c 0 -i 15 -a 0 -x {0.0 2.0 4 ------- null}
r -t 1.092816 -s 3 -d 1 -p tcp -e 1540 -c 0 -i 16 -a 0 -x {3.0 4.0 5 ------- null}
+ -t 1.092816 -s 1 -d 4 -p tcp -e 1540 -c 0 -i 16 -a 0 -x {3.0 4.0 5 ------- null}
r -t 1.092816 -s 0 -d 1 -p tcp -e 1540 -c 0 -i 18 -a 0 -x {0.0 2.0 5 ------- null}
+ -t 1.092816 -s 1 -d 2 -p tcp -e 1540 -c 0 -i 18 -a 0 -x {0.0 2.0 5 ------- null}
- -t 1.092816 -s 1 -d 4 -p tcp -e 1540 -c 0 -i 13 -a 0 -x {3.0 4.0 4 ------- null}
h -t 1.092816 -s 1 -d 4 -p tcp -e 1540 -c 0 -i 13 -a 0 -x {3.0 4.0 -1 ------- null}
- -t 1.092816 -s 1 -d 2 -p tcp -e 1540 -c 0 -i 15 -a 0 -x {0.0 2.0 4 ------- null}
h -t 1.092816 -s 1 -d 2 -p tcp -e 1540 -c 0 -i 15 -a 0 -x {0.0 2.0 -1 ------- null}
r -t 1.0929392 -s 3 -d 1 -p tcp -e 1540 -c 0 -i 17 -a 0 -x {3.0 4.0 6 ------- null}
+ -t 1.0929392 -s 1 -d 4 -p tcp -e 1540 -c 0 -i 17 -a 0 -x {3.0 4.0 6 ------- null}
r -t 1.0929392 -s 0 -d 1 -p tcp -e 1540 -c 0 -i 19 -a 0 -x {0.0 2.0 6 ------- null}
+ -t 1.0929392 -s 1 -d 2 -p tcp -e 1540 -c 0 -i 19 -a 0 -x {0.0 2.0 6 ------- null}
- -t 1.094048 -s 1 -d 4 -p tcp -e 1540 -c 0 -i 16 -a 0 -x {3.0 4.0 5 ------- null}
h -t 1.094048 -s 1 -d 4 -p tcp -e 1540 -c 0 -i 16 -a 0 -x {3.0 4.0 -1 ------- null}
- -t 1.094048 -s 1 -d 2 -p tcp -e 1540 -c 0 -i 18 -a 0 -x {0.0 2.0 5 ------- null}
h -t 1.094048 -s 1 -d 2 -p tcp -e 1540 -c 0 -i 18 -a 0 -x {0.0 2.0 -1 ------- null}
- -t 1.09528 -s 1 -d 4 -p tcp -e 1540 -c 0 -i 17 -a 0 -x {3.0 4.0 6 ------- null}
h -t 1.09528 -s 1 -d 4 -p tcp -e 1540 -c 0 -i 17 -a 0 -x {3.0 4.0 -1 ------- null}
- -t 1.09528 -s 1 -d 2 -p tcp -e 1540 -c 0 -i 19 -a 0 -x {0.0 2.0 6 ------- null}
h -t 1.09528 -s 1 -d 2 -p tcp -e 1540 -c 0 -i 19 -a 0 -x {0.0 2.0 -1 ------- null}
r -t 1.102816 -s 1 -d 4 -p tcp -e 1540 -c 0 -i 12 -a 0 -x {3.0 4.0 3 ------- null}
+ -t 1.102816 -s 4 -d 1 -p ack -e 40 -c 0 -i 20 -a 0 -x {4.0 3.0 3 ------- null}
- -t 1.102816 -s 4 -d 1 -p ack -e 40 -c 0 -i 20 -a 0 -x {4.0 3.0 3 ------- null}
h -t 1.102816 -s 4 -d 1 -p ack -e 40 -c 0 -i 20 -a 0 -x {4.0 3.0 -1 ------- null}
r -t 1.102816 -s 1 -d 2 -p tcp -e 1540 -c 0 -i 14 -a 0 -x {0.0 2.0 3 ------- null}
+ -t 1.102816 -s 2 -d 1 -p ack -e 40 -c 0 -i 21 -a 0 -x {2.0 0.0 3 ------- null}
- -t 1.102816 -s 2 -d 1 -p ack -e 40 -c 0 -i 21 -a 0 -x {2.0 0.0 3 ------- null}
h -t 1.102816 -s 2 -d 1 -p ack -e 40 -c 0 -i 21 -a 0 -x {2.0 0.0 -1 ------- null}
r -t 1.104048 -s 1 -d 4 -p tcp -e 1540 -c 0 -i 13 -a 0 -x {3.0 4.0 4 ------- null}
+ -t 1.104048 -s 4 -d 1 -p ack -e 40 -c 0 -i 22 -a 0 -x {4.0 3.0 4 ------- null}
- -t 1.104048 -s 4 -d 1 -p ack -e 40 -c 0 -i 22 -a 0 -x {4.0 3.0 4 ------- null}
h -t 1.104048 -s 4 -d 1 -p ack -e 40 -c 0 -i 22 -a 0 -x {4.0 3.0 -1 ------- null}
r -t 1.104048 -s 1 -d 2 -p tcp -e 1540 -c 0 -i 15 -a 0 -x {0.0 2.0 4 ------- null}
+ -t 1.104048 -s 2 -d 1 -p ack -e 40 -c 0 -i 23 -a 0 -x {2.0 0.0 4 ------- null}
- -t 1.104048 -s 2 -d 1 -p ack -e 40 -c 0 -i 23 -a 0 -x {2.0 0.0 4 ------- null}
h -t 1.104048 -s 2 -d 1 -p ack -e 40 -c 0 -i 23 -a 0 -x {2.0 0.0 -1 ------- null}
r -t 1.10528 -s 1 -d 4 -p tcp -e 1540 -c 0 -i 16 -a 0 -x {3.0 4.0 5 ------- null}
+ -t 1.10528 -s 4 -d 1 -p ack -e 40 -c 0 -i 24 -a 0 -x {4.0 3.0 5 ------- null}
- -t 1.10528 -s 4 -d 1 -p ack -e 40 -c 0 -i 24 -a 0 -x {4.0 3.0 5 ------- null}
h -t 1.10528 -s 4 -d 1 -p ack -e 40 -c 0 -i 24 -a 0 -x {4.0 3.0 -1 ------- null}
r -t 1.10528 -s 1 -d 2 -p tcp -e 1540 -c 0 -i 18 -a 0 -x {0.0 2.0 5 ------- null}
+ -t 1.10528 -s 2 -d 1 -p ack -e 40 -c 0 -i 25 -a 0 -x {2.0 0.0 5 ------- null}
- -t 1.10528 -s 2 -d 1 -p ack -e 40 -c 0 -i 25 -a 0 -x {2.0 0.0 5 ------- null}
h -t 1.10528 -s 2 -d 1 -p ack -e 40 -c 0 -i 25 -a 0 -x {2.0 0.0 -1 ------- null}
r -t 1.106512 -s 1 -d 4 -p tcp -e 1540 -c 0 -i 17 -a 0 -x {3.0 4.0 6 ------- null}
+ -t 1.106512 -s 4 -d 1 -p ack -e 40 -c 0 -i 26 -a 0 -x {4.0 3.0 6 ------- null}
- -t 1.106512 -s 4 -d 1 -p ack -e 40 -c 0 -i 26 -a 0 -x {4.0 3.0 6 ------- null}
h -t 1.106512 -s 4 -d 1 -p ack -e 40 -c 0 -i 26 -a 0 -x {4.0 3.0 -1 ------- null}
r -t 1.106512 -s 1 -d 2 -p tcp -e 1540 -c 0 -i 19 -a 0 -x {0.0 2.0 6 ------- null}
+ -t 1.106512 -s 2 -d 1 -p ack -e 40 -c 0 -i 27 -a 0 -x {2.0 0.0 6 ------- null}
- -t 1.106512 -s 2 -d 1 -p ack -e 40 -c 0 -i 27 -a 0 -x {2.0 0.0 6 ------- null}
h -t 1.106512 -s 2 -d 1 -p ack -e 40 -c 0 -i 27 -a 0 -x {2.0 0.0 -1 ------- null}
r -t 1.112848 -s 4 -d 1 -p ack -e 40 -c 0 -i 20 -a 0 -x {4.0 3.0 3 ------- null}
+ -t 1.112848 -s 1 -d 3 -p ack -e 40 -c 0 -i 20 -a 0 -x {4.0 3.0 3 ------- null}
- -t 1.112848 -s 1 -d 3 -p ack -e 40 -c 0 -i 20 -a 0 -x {4.0 3.0 3 ------- null}
h -t 1.112848 -s 1 -d 3 -p ack -e 40 -c 0 -i 20 -a 0 -x {4.0 3.0 -1 ------- null}
r -t 1.112848 -s 2 -d 1 -p ack -e 40 -c 0 -i 21 -a 0 -x {2.0 0.0 3 ------- null}
+ -t 1.112848 -s 1 -d 0 -p ack -e 40 -c 0 -i 21 -a 0 -x {2.0 0.0 3 ------- null}
- -t 1.112848 -s 1 -d 0 -p ack -e 40 -c 0 -i 21 -a 0 -x {2.0 0.0 3 ------- null}
h -t 1.112848 -s 1 -d 0 -p ack -e 40 -c 0 -i 21 -a 0 -x {2.0 0.0 -1 ------- null}
r -t 1.11408 -s 4 -d 1 -p ack -e 40 -c 0 -i 22 -a 0 -x {4.0 3.0 4 ------- null}
+ -t 1.11408 -s 1 -d 3 -p ack -e 40 -c 0 -i 22 -a 0 -x {4.0 3.0 4 ------- null}
- -t 1.11408 -s 1 -d 3 -p ack -e 40 -c 0 -i 22 -a 0 -x {4.0 3.0 4 ------- null}
h -t 1.11408 -s 1 -d 3 -p ack -e 40 -c 0 -i 22 -a 0 -x {4.0 3.0 -1 ------- null}
r -t 1.11408 -s 2 -d 1 -p ack -e 40 -c 0 -i 23 -a 0 -x {2.0 0.0 4 ------- null}
+ -t 1.11408 -s 1 -d 0 -p ack -e 40 -c 0 -i 23 -a 0 -x {2.0 0.0 4 ------- null}
- -t 1.11408 -s 1 -d 0 -p ack -e 40 -c 0 -i 23 -a 0 -x {2.0 0.0 4 ------- null}
h -t 1.11408 -s 1 -d 0 -p ack -e 40 -c 0 -i 23 -a 0 -x {2.0 0.0 -1 ------- null}
r -t 1.115312 -s 4 -d 1 -p ack -e 40 -c 0 -i 24 -a 0 -x {4.0 3.0 5 ------- null}
+ -t 1.115312 -s 1 -d 3 -p ack -e 40 -c 0 -i 24 -a 0 -x {4.0 3.0 5 ------- null}
- -t 1.115312 -s 1 -d 3 -p ack -e 40 -c 0 -i 24 -a 0 -x {4.0 3.0 5 ------- null}
h -t 1.115312 -s 1 -d 3 -p ack -e 40 -c 0 -i 24 -a 0 -x {4.0 3.0 -1 ------- null}
r -t 1.115312 -s 2 -d 1 -p ack -e 40 -c 0 -i 25 -a 0 -x {2.0 0.0 5 ------- null}
+ -t 1.115312 -s 1 -d 0 -p ack -e 40 -c 0 -i 25 -a 0 -x {2.0 0.0 5 ------- null}
- -t 1.115312 -s 1 -d 0 -p ack -e 40 -c 0 -i 25 -a 0 -x {2.0 0.0 5 ------- null}
h -t 1.115312 -s 1 -d 0 -p ack -e 40 -c 0 -i 25 -a 0 -x {2.0 0.0 -1 ------- null}
r -t 1.116544 -s 4 -d 1 -p ack -e 40 -c 0 -i 26 -a 0 -x {4.0 3.0 6 ------- null}
+ -t 1.116544 -s 1 -d 3 -p ack -e 40 -c 0 -i 26 -a 0 -x {4.0 3.0 6 ------- null}
- -t 1.116544 -s 1 -d 3 -p ack -e 40 -c 0 -i 26 -a 0 -x {4.0 3.0 6 ------- null}
h -t 1.116544 -s 1 -d 3 -p ack -e 40 -c 0 -i 26 -a 0 -x {4.0 3.0 -1 ------- null}
r -t 1.116544 -s 2 -d 1 -p ack -e 40 -c 0 -i 27 -a 0 -x {2.0 0.0 6 ------- null}
+ -t 1.116544 -s 1 -d 0 -p ack -e 40 -c 0 -i 27 -a 0 -x {2.0 0.0 6 ------- null}
- -t 1.116544 -s 1 -d 0 -p ack -e 40 -c 0 -i 27 -a 0 -x {2.0 0.0 6 ------- null}
h -t 1.116544 -s 1 -d 0 -p ack -e 40 -c 0 -i 27 -a 0 -x {2.0 0.0 -1 ------- null}
r -t 1.1228512 -s 1 -d 3 -p ack -e 40 -c 0 -i 20 -a 0 -x {4.0 3.0 3 ------- null}
+ -t 1.1228512 -s 3 -d 1 -p tcp -e 1540 -c 0 -i 28 -a 0 -x {3.0 4.0 7 ------- null}
- -t 1.1228512 -s 3 -d 1 -p tcp -e 1540 -c 0 -i 28 -a 0 -x {3.0 4.0 7 ------- null}
h -t 1.1228512 -s 3 -d 1 -p tcp -e 1540 -c 0 -i 28 -a 0 -x {3.0 4.0 -1 ------- null}
+ -t 1.1228512 -s 3 -d 1 -p tcp -e 1540 -c 0 -i 29 -a 0 -x {3.0 4.0 8 ------- null}
r -t 1.1228512 -s 1 -d 0 -p ack -e 40 -c 0 -i 21 -a 0 -x {2.0 0.0 3 ------- null}
+ -t 1.1228512 -s 0 -d 1 -p tcp -e 1540 -c 0 -i 30 -a 0 -x {0.0 2.0 7 ------- null}
- -t 1.1228512 -s 0 -d 1 -p tcp -e 1540 -c 0 -i 30 -a 0 -x {0.0 2.0 7 ------- null}
h -t 1.1228512 -s 0 -d 1 -p tcp -e 1540 -c 0 -i 30 -a 0 -x {0.0 2.0 -1 ------- null}
+ -t 1.1228512 -s 0 -d 1 -p tcp -e 1540 -c 0 -i 31 -a 0 -x {0.0 2.0 8 ------- null}
- -t 1.1229744 -s 3 -d 1 -p tcp -e 1540 -c 0 -i 29 -a 0 -x {3.0 4.0 8 ------- null}
h -t 1.1229744 -s 3 -d 1 -p tcp -e 1540 -c 0 -i 29 -a 0 -x {3.0 4.0 -1 ------- null}
- -t 1.1229744 -s 0 -d 1 -p tcp -e 1540 -c 0 -i 31 -a 0 -x {0.0 2.0 8 ------- null}
h -t 1.1229744 -s 0 -d 1 -p tcp -e 1540 -c 0 -i 31 -a 0 -x {0.0 2.0 -1 ------- null}
r -t 1.1240832 -s 1 -d 3 -p ack -e 40 -c 0 -i 22 -a 0 -x {4.0 3.0 4 ------- null}
+ -t 1.1240832 -s 3 -d 1 -p tcp -e 1540 -c 0 -i 32 -a 0 -x {3.0 4.0 9 ------- null}
- -t 1.1240832 -s 3 -d 1 -p tcp -e 1540 -c 0 -i 32 -a 0 -x {3.0 4.0 9 ------- null}
h -t 1.1240832 -s 3 -d 1 -p tcp -e 1540 -c 0 -i 32 -a 0 -x {3.0 4.0 -1 ------- null}
+ -t 1.1240832 -s 3 -d 1 -p tcp -e 1540 -c 0 -i 33 -a 0 -x {3.0 4.0 10 ------- null}
r -t 1.1240832 -s 1 -d 0 -p ack -e 40 -c 0 -i 23 -a 0 -x {2.0 0.0 4 ------- null}
+ -t 1.1240832 -s 0 -d 1 -p tcp -e 1540 -c 0 -i 34 -a 0 -x {0.0 2.0 9 ------- null}
- -t 1.1240832 -s 0 -d 1 -p tcp -e 1540 -c 0 -i 34 -a 0 -x {0.0 2.0 9 ------- null}
h -t 1.1240832 -s 0 -d 1 -p tcp -e 1540 -c 0 -i 34 -a 0 -x {0.0 2.0 -1 ------- null}
+ -t 1.1240832 -s 0 -d 1 -p tcp -e 1540 -c 0 -i 35 -a 0 -x {0.0 2.0 10 ------- null}
- -t 1.1242064 -s 3 -d 1 -p tcp -e 1540 -c 0 -i 33 -a 0 -x {3.0 4.0 10 ------- null}
h -t 1.1242064 -s 3 -d 1 -p tcp -e 1540 -c 0 -i 33 -a 0 -x {3.0 4.0 -1 ------- null}
- -t 1.1242064 -s 0 -d 1 -p tcp -e 1540 -c 0 -i 35 -a 0 -x {0.0 2.0 10 ------- null}
h -t 1.1242064 -s 0 -d 1 -p tcp -e 1540 -c 0 -i 35 -a 0 -x {0.0 2.0 -1 ------- null}
r -t 1.1253152 -s 1 -d 3 -p ack -e 40 -c 0 -i 24 -a 0 -x {4.0 3.0 5 ------- null}
+ -t 1.1253152 -s 3 -d 1 -p tcp -e 1540 -c 0 -i 36 -a 0 -x {3.0 4.0 11 ------- null}
- -t 1.1253152 -s 3 -d 1 -p tcp -e 1540 -c 0 -i 36 -a 0 -x {3.0 4.0 11 ------- null}
h -t 1.1253152 -s 3 -d 1 -p tcp -e 1540 -c 0 -i 36 -a 0 -x {3.0 4.0 -1 ------- null}
+ -t 1.1253152 -s 3 -d 1 -p tcp -e 1540 -c 0 -i 37 -a 0 -x {3.0 4.0 12 ------- null}
r -t 1.1253152 -s 1 -d 0 -p ack -e 40 -c 0 -i 25 -a 0 -x {2.0 0.0 5 ------- null}
+ -t 1.1253152 -s 0 -d 1 -p tcp -e 1540 -c 0 -i 38 -a 0 -x {0.0 2.0 11 ------- null}
- -t 1.1253152 -s 0 -d 1 -p tcp -e 1540 -c 0 -i 38 -a 0 -x {0.0 2.0 11 ------- null}
h -t 1.1253152 -s 0 -d 1 -p tcp -e 1540 -c 0 -i 38 -a 0 -x {0.0 2.0 -1 ------- null}
+ -t 1.1253152 -s 0 -d 1 -p tcp -e 1540 -c 0 -i 39 -a 0 -x {0.0 2.0 12 ------- null}
- -t 1.1254384 -s 3 -d 1 -p tcp -e 1540 -c 0 -i 37 -a 0 -x {3.0 4.0 12 ------- null}
h -t 1.1254384 -s 3 -d 1 -p tcp -e 1540 -c 0 -i 37 -a 0 -x {3.0 4.0 -1 ------- null}
- -t 1.1254384 -s 0 -d 1 -p tcp -e 1540 -c 0 -i 39 -a 0 -x {0.0 2.0 12 ------- null}
h -t 1.1254384 -s 0 -d 1 -p tcp -e 1540 -c 0 -i 39 -a 0 -x {0.0 2.0 -1 ------- null}
r -t 1.1265472 -s 1 -d 3 -p ack -e 40 -c 0 -i 26 -a 0 -x {4.0 3.0 6 ------- null}
+ -t 1.1265472 -s 3 -d 1 -p tcp -e 1540 -c 0 -i 40 -a 0 -x {3.0 4.0 13 ------- null}
- -t 1.1265472 -s 3 -d 1 -p tcp -e 1540 -c 0 -i 40 -a 0 -x {3.0 4.0 13 ------- null}
h -t 1.1265472 -s 3 -d 1 -p tcp -e 1540 -c 0 -i 40 -a 0 -x {3.0 4.0 -1 ------- null}
+ -t 1.1265472 -s 3 -d 1 -p tcp -e 1540 -c 0 -i 41 -a 0 -x {3.0 4.0 14 ------- null}
r -t 1.1265472 -s 1 -d 0 -p ack -e 40 -c 0 -i 27 -a 0 -x {2.0 0.0 6 ------- null}
+ -t 1.1265472 -s 0 -d 1 -p tcp -e 1540 -c 0 -i 42 -a 0 -x {0.0 2.0 13 ------- null}
- -t 1.1265472 -s 0 -d 1 -p tcp -e 1540 -c 0 -i 42 -a 0 -x {0.0 2.0 13 ------- null}
h -t 1.1265472 -s 0 -d 1 -p tcp -e 1540 -c 0 -i 42 -a 0 -x {0.0 2.0 -1 ------- null}
+ -t 1.1265472 -s 0 -d 1 -p tcp -e 1540 -c 0 -i 43 -a 0 -x {0.0 2.0 14 ------- null}
- -t 1.1266704 -s 3 -d 1 -p tcp -e 1540 -c 0 -i 41 -a 0 -x {3.0 4.0 14 ------- null}
h -t 1.1266704 -s 3 -d 1 -p tcp -e 1540 -c 0 -i 41 -a 0 -x {3.0 4.0 -1 ------- null}
- -t 1.1266704 -s 0 -d 1 -p tcp -e 1540 -c 0 -i 43 -a 0 -x {0.0 2.0 14 ------- null}
h -t 1.1266704 -s 0 -d 1 -p tcp -e 1540 -c 0 -i 43 -a 0 -x {0.0 2.0 -1 ------- null}
r -t 1.1329744 -s 3 -d 1 -p tcp -e 1540 -c 0 -i 28 -a 0 -x {3.0 4.0 7 ------- null}
+ -t 1.1329744 -s 1 -d 4 -p tcp -e 1540 -c 0 -i 28 -a 0 -x {3.0 4.0 7 ------- null}
- -t 1.1329744 -s 1 -d 4 -p tcp -e 1540 -c 0 -i 28 -a 0 -x {3.0 4.0 7 ------- null}
h -t 1.1329744 -s 1 -d 4 -p tcp -e 1540 -c 0 -i 28 -a 0 -x {3.0 4.0 -1 ------- null}
r -t 1.1329744 -s 0 -d 1 -p tcp -e 1540 -c 0 -i 30 -a 0 -x {0.0 2.0 7 ------- null}
+ -t 1.1329744 -s 1 -d 2 -p tcp -e 1540 -c 0 -i 30 -a 0 -x {0.0 2.0 7 ------- null}
- -t 1.1329744 -s 1 -d 2 -p tcp -e 1540 -c 0 -i 30 -a 0 -x {0.0 2.0 7 ------- null}
h -t 1.1329744 -s 1 -d 2 -p tcp -e 1540 -c 0 -i 30 -a 0 -x {0.0 2.0 -1 ------- null}
r -t 1.1330976 -s 3 -d 1 -p tcp -e 1540 -c 0 -i 29 -a 0 -x {3.0 4.0 8 ------- null}
+ -t 1.1330976 -s 1 -d 4 -p tcp -e 1540 -c 0 -i 29 -a 0 -x {3.0 4.0 8 ------- null}
r -t 1.1330976 -s 0 -d 1 -p tcp -e 1540 -c 0 -i 31 -a 0 -x {0.0 2.0 8 ------- null}
+ -t 1.1330976 -s 1 -d 2 -p tcp -e 1540 -c 0 -i 31 -a 0 -x {0.0 2.0 8 ------- null}
r -t 1.1342064 -s 3 -d 1 -p tcp -e 1540 -c 0 -i 32 -a 0 -x {3.0 4.0 9 ------- null}
+ -t 1.1342064 -s 1 -d 4 -p tcp -e 1540 -c 0 -i 32 -a 0 -x {3.0 4.0 9 ------- null}
r -t 1.1342064 -s 0 -d 1 -p tcp -e 1540 -c 0 -i 34 -a 0 -x {0.0 2.0 9 ------- null}
+ -t 1.1342064 -s 1 -d 2 -p tcp -e 1540 -c 0 -i 34 -a 0 -x {0.0 2.0 9 ------- null}
- -t 1.1342064 -s 1 -d 4 -p tcp -e 1540 -c 0 -i 29 -a 0 -x {3.0 4.0 8 ------- null}
h -t 1.1342064 -s 1 -d 4 -p tcp -e 1540 -c 0 -i 29 -a 0 -x {3.0 4.0 -1 ------- null}
- -t 1.1342064 -s 1 -d 2 -p tcp -e 1540 -c 0 -i 31 -a 0 -x {0.0 2.0 8 ------- null}
h -t 1.1342064 -s 1 -d 2 -p tcp -e 1540 -c 0 -i 31 -a 0 -x {0.0 2.0 -1 ------- null}
r -t 1.1343296 -s 3 -d 1 -p tcp -e 1540 -c 0 -i 33 -a 0 -x {3.0 4.0 10 ------- null}
+ -t 1.1343296 -s 1 -d 4 -p tcp -e 1540 -c 0 -i 33 -a 0 -x {3.0 4.0 10 ------- null}
r -t 1.1343296 -s 0 -d 1 -p tcp -e 1540 -c 0 -i 35 -a 0 -x {0.0 2.0 10 ------- null}
+ -t 1.1343296 -s 1 -d 2 -p tcp -e 1540 -c 0 -i 35 -a 0 -x {0.0 2.0 10 ------- null}
r -t 1.1354384 -s 3 -d 1 -p tcp -e 1540 -c 0 -i 36 -a 0 -x {3.0 4.0 11 ------- null}
+ -t 1.1354384 -s 1 -d 4 -p tcp -e 1540 -c 0 -i 36 -a 0 -x {3.0 4.0 11 ------- null}
r -t 1.1354384 -s 0 -d 1 -p tcp -e 1540 -c 0 -i 38 -a 0 -x {0.0 2.0 11 ------- null}
+ -t 1.1354384 -s 1 -d 2 -p tcp -e 1540 -c 0 -i 38 -a 0 -x {0.0 2.0 11 ------- null}
- -t 1.1354384 -s 1 -d 4 -p tcp -e 1540 -c 0 -i 32 -a 0 -x {3.0 4.0 9 ------- null}
h -t 1.1354384 -s 1 -d 4 -p tcp -e 1540 -c 0 -i 32 -a 0 -x {3.0 4.0 -1 ------- null}
- -t 1.1354384 -s 1 -d 2 -p tcp -e 1540 -c 0 -i 34 -a 0 -x {0.0 2.0 9 ------- null}
h -t 1.1354384 -s 1 -d 2 -p tcp -e 1540 -c 0 -i 34 -a 0 -x {0.0 2.0 -1 ------- null}
r -t 1.1355616 -s 3 -d 1 -p tcp -e 1540 -c 0 -i 37 -a 0 -x {3.0 4.0 12 ------- null}
+ -t 1.1355616 -s 1 -d 4 -p tcp -e 1540 -c 0 -i 37 -a 0 -x {3.0 4.0 12 ------- null}
r -t 1.1355616 -s 0 -d 1 -p tcp -e 1540 -c 0 -i 39 -a 0 -x {0.0 2.0 12 ------- null}
+ -t 1.1355616 -s 1 -d 2 -p tcp -e 1540 -c 0 -i 39 -a 0 -x {0.0 2.0 12 ------- null}
r -t 1.1366704 -s 3 -d 1 -p tcp -e 1540 -c 0 -i 40 -a 0 -x {3.0 4.0 13 ------- null}
+ -t 1.1366704 -s 1 -d 4 -p tcp -e 1540 -c 0 -i 40 -a 0 -x {3.0 4.0 13 ------- null}
r -t 1.1366704 -s 0 -d 1 -p tcp -e 1540 -c 0 -i 42 -a 0 -x {0.0 2.0 13 ------- null}
+ -t 1.1366704 -s 1 -d 2 -p tcp -e 1540 -c 0 -i 42 -a 0 -x {0.0 2.0 13 ------- null}
- -t 1.1366704 -s 1 -d 4 -p tcp -e 1540 -c 0 -i 33 -a 0 -x {3.0 4.0 10 ------- null}
h -t 1.1366704 -s 1 -d 4 -p tcp -e 1540 -c 0 -i 33 -a 0 -x {3.0 4.0 -1 ------- null}
- -t 1.1366704 -s 1 -d 2 -p tcp -e 1540 -c 0 -i 35 -a 0 -x {0.0 2.0 10 ------- null}
h -t 1.1366704 -s 1 -d 2 -p tcp -e 1540 -c 0 -i 35 -a 0 -x {0.0 2.0 -1 ------- null}
r -t 1.1367936 -s 3 -d 1 -p tcp -e 1540 -c 0 -i 41 -a 0 -x {3.0 4.0 14 ------- null}
+ -t 1.1367936 -s 1 -d 4 -p tcp -e 1540 -c 0 -i 41 -a 0 -x {3.0 4.0 14 ------- null}
r -t 1.1367936 -s 0 -d 1 -p tcp -e 1540 -c 0 -i 43 -a 0 -x {0.0 2.0 14 ------- null}
+ -t 1.1367936 -s 1 -d 2 -p tcp -e 1540 -c 0 -i 43 -a 0 -x {0.0 2.0 14 ------- null}
- -t 1.1379024 -s 1 -d 4 -p tcp -e 1540 -c 0 -i 36 -a 0 -x {3.0 4.0 11 ------- null}
h -t 1.1379024 -s 1 -d 4 -p tcp -e 1540 -c 0 -i 36 -a 0 -x {3.0 4.0 -1 ------- null}
- -t 1.1379024 -s 1 -d 2 -p tcp -e 1540 -c 0 -i 38 -a 0 -x {0.0 2.0 11 ------- null}
h -t 1.1379024 -s 1 -d 2 -p tcp -e 1540 -c 0 -i 38 -a 0 -x {0.0 2.0 -1 ------- null}
- -t 1.1391344 -s 1 -d 4 -p tcp -e 1540 -c 0 -i 37 -a 0 -x {3.0 4.0 12 ------- null}
h -t 1.1391344 -s 1 -d 4 -p tcp -e 1540 -c 0 -i 37 -a 0 -x {3.0 4.0 -1 ------- null}
- -t 1.1391344 -s 1 -d 2 -p tcp -e 1540 -c 0 -i 39 -a 0 -x {0.0 2.0 12 ------- null}
h -t 1.1391344 -s 1 -d 2 -p tcp -e 1540 -c 0 -i 39 -a 0 -x {0.0 2.0 -1 ------- null}
- -t 1.1403664 -s 1 -d 4 -p tcp -e 1540 -c 0 -i 40 -a 0 -x {3.0 4.0 13 ------- null}
h -t 1.1403664 -s 1 -d 4 -p tcp -e 1540 -c 0 -i 40 -a 0 -x {3.0 4.0 -1 ------- null}
- -t 1.1403664 -s 1 -d 2 -p tcp -e 1540 -c 0 -i 42 -a 0 -x {0.0 2.0 13 ------- null}
h -t 1.1403664 -s 1 -d 2 -p tcp -e 1540 -c 0 -i 42 -a 0 -x {0.0 2.0 -1 ------- null}
- -t 1.1415984 -s 1 -d 4 -p tcp -e 1540 -c 0 -i 41 -a 0 -x {3.0 4.0 14 ------- null}
h -t 1.1415984 -s 1 -d 4 -p tcp -e 1540 -c 0 -i 41 -a 0 -x {3.0 4.0 -1 ------- null}
- -t 1.1415984 -s 1 -d 2 -p tcp -e 1540 -c 0 -i 43 -a 0 -x {0.0 2.0 14 ------- null}
h -t 1.1415984 -s 1 -d 2 -p tcp -e 1540 -c 0 -i 43 -a 0 -x {0.0 2.0 -1 ------- null}
r -t 1.1442064 -s 1 -d 4 -p tcp -e 1540 -c 0 -i 28 -a 0 -x {3.0 4.0 7 ------- null}
+ -t 1.1442064 -s 4 -d 1 -p ack -e 40 -c 0 -i 44 -a 0 -x {4.0 3.0 7 ------- null}
- -t 1.1442064 -s 4 -d 1 -p ack -e 40 -c 0 -i 44 -a 0 -x {4.0 3.0 7 ------- null}
h -t 1.1442064 -s 4 -d 1 -p ack -e 40 -c 0 -i 44 -a 0 -x {4.0 3.0 -1 ------- null}
r -t 1.1442064 -s 1 -d 2 -p tcp -e 1540 -c 0 -i 30 -a 0 -x {0.0 2.0 7 ------- null}
+ -t 1.1442064 -s 2 -d 1 -p ack -e 40 -c 0 -i 45 -a 0 -x {2.0 0.0 7 ------- null}
- -t 1.1442064 -s 2 -d 1 -p ack -e 40 -c 0 -i 45 -a 0 -x {2.0 0.0 7 ------- null}
h -t 1.1442064 -s 2 -d 1 -p ack -e 40 -c 0 -i 45 -a 0 -x {2.0 0.0 -1 ------- null}
r -t 1.1454384 -s 1 -d 4 -p tcp -e 1540 -c 0 -i 29 -a 0 -x {3.0 4.0 8 ------- null}
+ -t 1.1454384 -s 4 -d 1 -p ack -e 40 -c 0 -i 46 -a 0 -x {4.0 3.0 8 ------- null}
- -t 1.1454384 -s 4 -d 1 -p ack -e 40 -c 0 -i 46 -a 0 -x {4.0 3.0 8 ------- null}
h -t 1.1454384 -s 4 -d 1 -p ack -e 40 -c 0 -i 46 -a 0 -x {4.0 3.0 -1 ------- null}
r -t 1.1454384 -s 1 -d 2 -p tcp -e 1540 -c 0 -i 31 -a 0 -x {0.0 2.0 8 ------- null}
+ -t 1.1454384 -s 2 -d 1 -p ack -e 40 -c 0 -i 47 -a 0 -x {2.0 0.0 8 ------- null}
- -t 1.1454384 -s 2 -d 1 -p ack -e 40 -c 0 -i 47 -a 0 -x {2.0 0.0 8 ------- null}
h -t 1.1454384 -s 2 -d 1 -p ack -e 40 -c 0 -i 47 -a 0 -x {2.0 0.0 -1 ------- null}
r -t 1.1466704 -s 1 -d 4 -p tcp -e 1540 -c 0 -i 32 -a 0 -x {3.0 4.0 9 ------- null}
+ -t 1.1466704 -s 4 -d 1 -p ack -e 40 -c 0 -i 48 -a 0 -x {4.0 3.0 9 ------- null}