+ 1 3 1 tcp 40 ------- 0 3.0 4.0 0 0
- 1 3 1 tcp 40 ------- 0 3.0 4.0 0 0
+ 1 0 1 tcp 40 ------- 0 0.0 2.0 0 1
- 1 0 1 tcp 40 ------- 0 0.0 2.0 0 1
r 1.010003 3 1 tcp 40 ------- 0 3.0 4.0 0 0
+ 1.010003 1 4 tcp 40 ------- 0 3.0 4.0 0 0
- 1.010003 1 4 tcp 40 ------- 0 3.0 4.0 0 0
r 1.010003 0 1 tcp 40 ------- 0 0.0 2.0 0 1
+ 1.010003 1 2 tcp 40 ------- 0 0.0 2.0 0 1
- 1.010003 1 2 tcp 40 ------- 0 0.0 2.0 0 1
r 1.020035 1 4 tcp 40 ------- 0 3.0 4.0 0 0
+ 1.020035 4 1 ack 40 ------- 0 4.0 3.0 0 2
- 1.020035 4 1 ack 40 ------- 0 4.0 3.0 0 2
r 1.020035 1 2 tcp 40 ------- 0 0.0 2.0 0 1
+ 1.020035 2 1 ack 40 ------- 0 2.0 0.0 0 3
- 1.020035 2 1 ack 40 ------- 0 2.0 0.0 0 3
r 1.030067 4 1 ack 40 ------- 0 4.0 3.0 0 2
+ 1.030067 1 3 ack 40 ------- 0 4.0 3.0 0 2
- 1.030067 1 3 ack 40 ------- 0 4.0 3.0 0 2
r 1.030067 2 1 ack 40 ------- 0 2.0 0.0 0 3
+ 1.030067 1 0 ack 40 ------- 0 2.0 0.0 0 3
- 1.030067 1 0 ack 40 ------- 0 2.0 0.0 0 3
r 1.04007 1 3 ack 40 ------- 0 4.0 3.0 0 2
+ 1.04007 3 1 tcp 1540 ------- 0 3.0 4.0 1 4
- 1.04007 3 1 tcp 1540 ------- 0 3.0 4.0 1 4
+ 1.04007 3 1 tcp 1540 ------- 0 3.0 4.0 2 5
r 1.04007 1 0 ack 40 ------- 0 2.0 0.0 0 3
+ 1.04007 0 1 tcp 1540 ------- 0 0.0 2.0 1 6
- 1.04007 0 1 tcp 1540 ------- 0 0.0 2.0 1 6
+ 1.04007 0 1 tcp 1540 ------- 0 0.0 2.0 2 7
- 1.040194 3 1 tcp 1540 ------- 0 3.0 4.0 2 5
- 1.040194 0 1 tcp 1540 ------- 0 0.0 2.0 2 7
r 1.050194 3 1 tcp 1540 ------- 0 3.0 4.0 1 4
+ 1.050194 1 4 tcp 1540 ------- 0 3.0 4.0 1 4
- 1.050194 1 4 tcp 1540 ------- 0 3.0 4.0 1 4
r 1.050194 0 1 tcp 1540 ------- 0 0.0 2.0 1 6
+ 1.050194 1 2 tcp 1540 ------- 0 0.0 2.0 1 6
- 1.050194 1 2 tcp 1540 ------- 0 0.0 2.0 1 6
r 1.050317 3 1 tcp 1540 ------- 0 3.0 4.0 2 5
+ 1.050317 1 4 tcp 1540 ------- 0 3.0 4.0 2 5
r 1.050317 0 1 tcp 1540 ------- 0 0.0 2.0 2 7
+ 1.050317 1 2 tcp 1540 ------- 0 0.0 2.0 2 7
- 1.051426 1 4 tcp 1540 ------- 0 3.0 4.0 2 5
- 1.051426 1 2 tcp 1540 ------- 0 0.0 2.0 2 7
r 1.061426 1 4 tcp 1540 ------- 0 3.0 4.0 1 4
+ 1.061426 4 1 ack 40 ------- 0 4.0 3.0 1 8
- 1.061426 4 1 ack 40 ------- 0 4.0 3.0 1 8
r 1.061426 1 2 tcp 1540 ------- 0 0.0 2.0 1 6
+ 1.061426 2 1 ack 40 ------- 0 2.0 0.0 1 9
- 1.061426 2 1 ack 40 ------- 0 2.0 0.0 1 9
r 1.062658 1 4 tcp 1540 ------- 0 3.0 4.0 2 5
+ 1.062658 4 1 ack 40 ------- 0 4.0 3.0 2 10
- 1.062658 4 1 ack 40 ------- 0 4.0 3.0 2 10
r 1.062658 1 2 tcp 1540 ------- 0 0.0 2.0 2 7
+ 1.062658 2 1 ack 40 ------- 0 2.0 0.0 2 11
- 1.062658 2 1 ack 40 ------- 0 2.0 0.0 2 11
r 1.071458 4 1 ack 40 ------- 0 4.0 3.0 1 8
+ 1.071458 1 3 ack 40 ------- 0 4.0 3.0 1 8
- 1.071458 1 3 ack 40 ------- 0 4.0 3.0 1 8
r 1.071458 2 1 ack 40 ------- 0 2.0 0.0 1 9
+ 1.071458 1 0 ack 40 ------- 0 2.0 0.0 1 9
- 1.071458 1 0 ack 40 ------- 0 2.0 0.0 1 9
r 1.07269 4 1 ack 40 ------- 0 4.0 3.0 2 10
+ 1.07269 1 3 ack 40 ------- 0 4.0 3.0 2 10
- 1.07269 1 3 ack 40 ------- 0 4.0 3.0 2 10
r 1.07269 2 1 ack 40 ------- 0 2.0 0.0 2 11
+ 1.07269 1 0 ack 40 ------- 0 2.0 0.0 2 11
- 1.07269 1 0 ack 40 ------- 0 2.0 0.0 2 11
r 1.081461 1 3 ack 40 ------- 0 4.0 3.0 1 8
+ 1.081461 3 1 tcp 1540 ------- 0 3.0 4.0 3 12
- 1.081461 3 1 tcp 1540 ------- 0 3.0 4.0 3 12
+ 1.081461 3 1 tcp 1540 ------- 0 3.0 4.0 4 13
r 1.081461 1 0 ack 40 ------- 0 2.0 0.0 1 9
+ 1.081461 0 1 tcp 1540 ------- 0 0.0 2.0 3 14
- 1.081461 0 1 tcp 1540 ------- 0 0.0 2.0 3 14
+ 1.081461 0 1 tcp 1540 ------- 0 0.0 2.0 4 15
- 1.081584 3 1 tcp 1540 ------- 0 3.0 4.0 4 13
- 1.081584 0 1 tcp 1540 ------- 0 0.0 2.0 4 15
r 1.082693 1 3 ack 40 ------- 0 4.0 3.0 2 10
+ 1.082693 3 1 tcp 1540 ------- 0 3.0 4.0 5 16
- 1.082693 3 1 tcp 1540 ------- 0 3.0 4.0 5 16
+ 1.082693 3 1 tcp 1540 ------- 0 3.0 4.0 6 17
r 1.082693 1 0 ack 40 ------- 0 2.0 0.0 2 11
+ 1.082693 0 1 tcp 1540 ------- 0 0.0 2.0 5 18
- 1.082693 0 1 tcp 1540 ------- 0 0.0 2.0 5 18
+ 1.082693 0 1 tcp 1540 ------- 0 0.0 2.0 6 19
- 1.082816 3 1 tcp 1540 ------- 0 3.0 4.0 6 17
- 1.082816 0 1 tcp 1540 ------- 0 0.0 2.0 6 19
r 1.091584 3 1 tcp 1540 ------- 0 3.0 4.0 3 12
+ 1.091584 1 4 tcp 1540 ------- 0 3.0 4.0 3 12
- 1.091584 1 4 tcp 1540 ------- 0 3.0 4.0 3 12
r 1.091584 0 1 tcp 1540 ------- 0 0.0 2.0 3 14
+ 1.091584 1 2 tcp 1540 ------- 0 0.0 2.0 3 14
- 1.091584 1 2 tcp 1540 ------- 0 0.0 2.0 3 14
r 1.091707 3 1 tcp 1540 ------- 0 3.0 4.0 4 13
+ 1.091707 1 4 tcp 1540 ------- 0 3.0 4.0 4 13
r 1.091707 0 1 tcp 1540 ------- 0 0.0 2.0 4 15
+ 1.091707 1 2 tcp 1540 ------- 0 0.0 2.0 4 15
r 1.092816 3 1 tcp 1540 ------- 0 3.0 4.0 5 16
+ 1.092816 1 4 tcp 1540 ------- 0 3.0 4.0 5 16
r 1.092816 0 1 tcp 1540 ------- 0 0.0 2.0 5 18
+ 1.092816 1 2 tcp 1540 ------- 0 0.0 2.0 5 18
- 1.092816 1 4 tcp 1540 ------- 0 3.0 4.0 4 13
- 1.092816 1 2 tcp 1540 ------- 0 0.0 2.0 4 15
r 1.092939 3 1 tcp 1540 ------- 0 3.0 4.0 6 17
+ 1.092939 1 4 tcp 1540 ------- 0 3.0 4.0 6 17
r 1.092939 0 1 tcp 1540 ------- 0 0.0 2.0 6 19
+ 1.092939 1 2 tcp 1540 ------- 0 0.0 2.0 6 19
- 1.094048 1 4 tcp 1540 ------- 0 3.0 4.0 5 16
- 1.094048 1 2 tcp 1540 ------- 0 0.0 2.0 5 18
- 1.09528 1 4 tcp 1540 ------- 0 3.0 4.0 6 17
- 1.09528 1 2 tcp 1540 ------- 0 0.0 2.0 6 19
r 1.102816 1 4 tcp 1540 ------- 0 3.0 4.0 3 12
+ 1.102816 4 1 ack 40 ------- 0 4.0 3.0 3 20
- 1.102816 4 1 ack 40 ------- 0 4.0 3.0 3 20
r 1.102816 1 2 tcp 1540 ------- 0 0.0 2.0 3 14
+ 1.102816 2 1 ack 40 ------- 0 2.0 0.0 3 21
- 1.102816 2 1 ack 40 ------- 0 2.0 0.0 3 21
r 1.104048 1 4 tcp 1540 ------- 0 3.0 4.0 4 13
+ 1.104048 4 1 ack 40 ------- 0 4.0 3.0 4 22
- 1.104048 4 1 ack 40 ------- 0 4.0 3.0 4 22
r 1.104048 1 2 tcp 1540 ------- 0 0.0 2.0 4 15
+ 1.104048 2 1 ack 40 ------- 0 2.0 0.0 4 23
- 1.104048 2 1 ack 40 ------- 0 2.0 0.0 4 23
r 1.10528 1 4 tcp 1540 ------- 0 3.0 4.0 5 16
+ 1.10528 4 1 ack 40 ------- 0 4.0 3.0 5 24
- 1.10528 4 1 ack 40 ------- 0 4.0 3.0 5 24
r 1.10528 1 2 tcp 1540 ------- 0 0.0 2.0 5 18
+ 1.10528 2 1 ack 40 ------- 0 2.0 0.0 5 25
- 1.10528 2 1 ack 40 ------- 0 2.0 0.0 5 25
r 1.106512 1 4 tcp 1540 ------- 0 3.0 4.0 6 17
+ 1.106512 4 1 ack 40 ------- 0 4.0 3.0 6 26
- 1.106512 4 1 ack 40 ------- 0 4.0 3.0 6 26
r 1.106512 1 2 tcp 1540 ------- 0 0.0 2.0 6 19
+ 1.106512 2 1 ack 40 ------- 0 2.0 0.0 6 27
- 1.106512 2 1 ack 40 ------- 0 2.0 0.0 6 27
r 1.112848 4 1 ack 40 ------- 0 4.0 3.0 3 20
+ 1.112848 1 3 ack 40 ------- 0 4.0 3.0 3 20
- 1.112848 1 3 ack 40 ------- 0 4.0 3.0 3 20
r 1.112848 2 1 ack 40 ------- 0 2.0 0.0 3 21
+ 1.112848 1 0 ack 40 ------- 0 2.0 0.0 3 21
- 1.112848 1 0 ack 40 ------- 0 2.0 0.0 3 21
r 1.11408 4 1 ack 40 ------- 0 4.0 3.0 4 22
+ 1.11408 1 3 ack 40 ------- 0 4.0 3.0 4 22
- 1.11408 1 3 ack 40 ------- 0 4.0 3.0 4 22
r 1.11408 2 1 ack 40 ------- 0 2.0 0.0 4 23
+ 1.11408 1 0 ack 40 ------- 0 2.0 0.0 4 23
- 1.11408 1 0 ack 40 ------- 0 2.0 0.0 4 23
r 1.115312 4 1 ack 40 ------- 0 4.0 3.0 5 24
+ 1.115312 1 3 ack 40 ------- 0 4.0 3.0 5 24
- 1.115312 1 3 ack 40 ------- 0 4.0 3.0 5 24
r 1.115312 2 1 ack 40 ------- 0 2.0 0.0 5 25
+ 1.115312 1 0 ack 40 ------- 0 2.0 0.0 5 25
- 1.115312 1 0 ack 40 ------- 0 2.0 0.0 5 25
r 1.116544 4 1 ack 40 ------- 0 4.0 3.0 6 26
+ 1.116544 1 3 ack 40 ------- 0 4.0 3.0 6 26
- 1.116544 1 3 ack 40 ------- 0 4.0 3.0 6 26
r 1.116544 2 1 ack 40 ------- 0 2.0 0.0 6 27
+ 1.116544 1 0 ack 40 ------- 0 2.0 0.0 6 27
- 1.116544 1 0 ack 40 ------- 0 2.0 0.0 6 27
r 1.122851 1 3 ack 40 ------- 0 4.0 3.0 3 20
+ 1.122851 3 1 tcp 1540 ------- 0 3.0 4.0 7 28
- 1.122851 3 1 tcp 1540 ------- 0 3.0 4.0 7 28
+ 1.122851 3 1 tcp 1540 ------- 0 3.0 4.0 8 29
r 1.122851 1 0 ack 40 ------- 0 2.0 0.0 3 21
+ 1.122851 0 1 tcp 1540 ------- 0 0.0 2.0 7 30
- 1.122851 0 1 tcp 1540 ------- 0 0.0 2.0 7 30
+ 1.122851 0 1 tcp 1540 ------- 0 0.0 2.0 8 31
- 1.122974 3 1 tcp 1540 ------- 0 3.0 4.0 8 29
- 1.122974 0 1 tcp 1540 ------- 0 0.0 2.0 8 31
r 1.124083 1 3 ack 40 ------- 0 4.0 3.0 4 22
+ 1.124083 3 1 tcp 1540 ------- 0 3.0 4.0 9 32
- 1.124083 3 1 tcp 1540 ------- 0 3.0 4.0 9 32
+ 1.124083 3 1 tcp 1540 ------- 0 3.0 4.0 10 33
r 1.124083 1 0 ack 40 ------- 0 2.0 0.0 4 23
+ 1.124083 0 1 tcp 1540 ------- 0 0.0 2.0 9 34
- 1.124083 0 1 tcp 1540 ------- 0 0.0 2.0 9 34
+ 1.124083 0 1 tcp 1540 ------- 0 0.0 2.0 10 35
- 1.124206 3 1 tcp 1540 ------- 0 3.0 4.0 10 33
- 1.124206 0 1 tcp 1540 ------- 0 0.0 2.0 10 35
r 1.125315 1 3 ack 40 ------- 0 4.0 3.0 5 24
+ 1.125315 3 1 tcp 1540 ------- 0 3.0 4.0 11 36
- 1.125315 3 1 tcp 1540 ------- 0 3.0 4.0 11 36
+ 1.125315 3 1 tcp 1540 ------- 0 3.0 4.0 12 37
r 1.125315 1 0 ack 40 ------- 0 2.0 0.0 5 25
+ 1.125315 0 1 tcp 1540 ------- 0 0.0 2.0 11 38
- 1.125315 0 1 tcp 1540 ------- 0 0.0 2.0 11 38
+ 1.125315 0 1 tcp 1540 ------- 0 0.0 2.0 12 39
- 1.125438 3 1 tcp 1540 ------- 0 3.0 4.0 12 37
- 1.125438 0 1 tcp 1540 ------- 0 0.0 2.0 12 39
r 1.126547 1 3 ack 40 ------- 0 4.0 3.0 6 26
+ 1.126547 3 1 tcp 1540 ------- 0 3.0 4.0 13 40
- 1.126547 3 1 tcp 1540 ------- 0 3.0 4.0 13 40
+ 1.126547 3 1 tcp 1540 ------- 0 3.0 4.0 14 41
r 1.126547 1 0 ack 40 ------- 0 2.0 0.0 6 27
+ 1.126547 0 1 tcp 1540 ------- 0 0.0 2.0 13 42
- 1.126547 0 1 tcp 1540 ------- 0 0.0 2.0 13 42
+ 1.126547 0 1 tcp 1540 ------- 0 0.0 2.0 14 43
- 1.12667 3 1 tcp 1540 ------- 0 3.0 4.0 14 41
- 1.12667 0 1 tcp 1540 ------- 0 0.0 2.0 14 43
r 1.132974 3 1 tcp 1540 ------- 0 3.0 4.0 7 28
+ 1.132974 1 4 tcp 1540 ------- 0 3.0 4.0 7 28
- 1.132974 1 4 tcp 1540 ------- 0 3.0 4.0 7 28
r 1.132974 0 1 tcp 1540 ------- 0 0.0 2.0 7 30
+ 1.132974 1 2 tcp 1540 ------- 0 0.0 2.0 7 30
- 1.132974 1 2 tcp 1540 ------- 0 0.0 2.0 7 30
r 1.133098 3 1 tcp 1540 ------- 0 3.0 4.0 8 29
+ 1.133098 1 4 tcp 1540 ------- 0 3.0 4.0 8 29
r 1.133098 0 1 tcp 1540 ------- 0 0.0 2.0 8 31
+ 1.133098 1 2 tcp 1540 ------- 0 0.0 2.0 8 31
r 1.134206 3 1 tcp 1540 ------- 0 3.0 4.0 9 32
+ 1.134206 1 4 tcp 1540 ------- 0 3.0 4.0 9 32
r 1.134206 0 1 tcp 1540 ------- 0 0.0 2.0 9 34
+ 1.134206 1 2 tcp 1540 ------- 0 0.0 2.0 9 34
- 1.134206 1 4 tcp 1540 ------- 0 3.0 4.0 8 29
- 1.134206 1 2 tcp 1540 ------- 0 0.0 2.0 8 31
r 1.13433 3 1 tcp 1540 ------- 0 3.0 4.0 10 33
+ 1.13433 1 4 tcp 1540 ------- 0 3.0 4.0 10 33
r 1.13433 0 1 tcp 1540 ------- 0 0.0 2.0 10 35
+ 1.13433 1 2 tcp 1540 ------- 0 0.0 2.0 10 35
r 1.135438 3 1 tcp 1540 ------- 0 3.0 4.0 11 36
+ 1.135438 1 4 tcp 1540 ------- 0 3.0 4.0 11 36
r 1.135438 0 1 tcp 1540 ------- 0 0.0 2.0 11 38
+ 1.135438 1 2 tcp 1540 ------- 0 0.0 2.0 11 38
- 1.135438 1 4 tcp 1540 ------- 0 3.0 4.0 9 32
- 1.135438 1 2 tcp 1540 ------- 0 0.0 2.0 9 34
r 1.135562 3 1 tcp 1540 ------- 0 3.0 4.0 12 37
+ 1.135562 1 4 tcp 1540 ------- 0 3.0 4.0 12 37
r 1.135562 0 1 tcp 1540 ------- 0 0.0 2.0 12 39
+ 1.135562 1 2 tcp 1540 ------- 0 0.0 2.0 12 39
r 1.13667 3 1 tcp 1540 ------- 0 3.0 4.0 13 40
+ 1.13667 1 4 tcp 1540 ------- 0 3.0 4.0 13 40
r 1.13667 0 1 tcp 1540 ------- 0 0.0 2.0 13 42
+ 1.13667 1 2 tcp 1540 ------- 0 0.0 2.0 13 42
- 1.13667 1 4 tcp 1540 ------- 0 3.0 4.0 10 33
- 1.13667 1 2 tcp 1540 ------- 0 0.0 2.0 10 35
r 1.136794 3 1 tcp 1540 ------- 0 3.0 4.0 14 41
+ 1.136794 1 4 tcp 1540 ------- 0 3.0 4.0 14 41
r 1.136794 0 1 tcp 1540 ------- 0 0.0 2.0 14 43
+ 1.136794 1 2 tcp 1540 ------- 0 0.0 2.0 14 43
- 1.137902 1 4 tcp 1540 ------- 0 3.0 4.0 11 36
- 1.137902 1 2 tcp 1540 ------- 0 0.0 2.0 11 38
- 1.139134 1 4 tcp 1540 ------- 0 3.0 4.0 12 37
- 1.139134 1 2 tcp 1540 ------- 0 0.0 2.0 12 39
- 1.140366 1 4 tcp 1540 ------- 0 3.0 4.0 13 40
- 1.140366 1 2 tcp 1540 ------- 0 0.0 2.0 13 42
- 1.141598 1 4 tcp 1540 ------- 0 3.0 4.0 14 41
- 1.141598 1 2 tcp 1540 ------- 0 0.0 2.0 14 43
r 1.144206 1 4 tcp 1540 ------- 0 3.0 4.0 7 28
+ 1.144206 4 1 ack 40 ------- 0 4.0 3.0 7 44
- 1.144206 4 1 ack 40 ------- 0 4.0 3.0 7 44
r 1.144206 1 2 tcp 1540 ------- 0 0.0 2.0 7 30
+ 1.144206 2 1 ack 40 ------- 0 2.0 0.0 7 45
- 1.144206 2 1 ack 40 ------- 0 2.0 0.0 7 45
r 1.145438 1 4 tcp 1540 ------- 0 3.0 4.0 8 29
+ 1.145438 4 1 ack 40 ------- 0 4.0 3.0 8 46
- 1.145438 4 1 ack 40 ------- 0 4.0 3.0 8 46
r 1.145438 1 2 tcp 1540 ------- 0 0.0 2.0 8 31
+ 1.145438 2 1 ack 40 ------- 0 2.0 0.0 8 47
- 1.145438 2 1 ack 40 ------- 0 2.0 0.0 8 47
r 1.14667 1 4 tcp 1540 ------- 0 3.0 4.0 9 32
+ 1.14667 4 1 ack 40 ------- 0 4.0 3.0 9 48
- 1.14667 4 1 ack 40 ------- 0 4.0 3.0 9 48
r 1.14667 1 2 tcp 1540 ------- 0 0.0 2.0 9 34
+ 1.14667 2 1 ack 40 ------- 0 2.0 0.0 9 49
- 1.14667 2 1 ack 40 ------- 0 2.0 0.0 9 49
r 1.147902 1 4 tcp 1540 ------- 0 3.0 4.0 10 33
+ 1.147902 4 1 ack 40 ------- 0 4.0 3.0 10 50
- 1.147902 4 1 ack 40 ------- 0 4.0 3.0 10 50
r 1.147902 1 2 tcp 1540 ------- 0 0.0 2.0 10 35
+ 1.147902 2 1 ack 40 ------- 0 2.0 0.0 10 51
- 1.147902 2 1 ack 40 ------- 0 2.0 0.0 10 51
r 1.149134 1 4 tcp 1540 ------- 0 3.0 4.0 11 36
+ 1.149134 4 1 ack 40 ------- 0 4.0 3.0 11 52
- 1.149134 4 1 ack 40 ------- 0 4.0 3.0 11 52
r 1.149134 1 2 tcp 1540 ------- 0 0.0 2.0 11 38
+ 1.149134 2 1 ack 40 ------- 0 2.0 0.0 11 53
- 1.149134 2 1 ack 40 ------- 0 2.0 0.0 11 53
r 1.150366 1 4 tcp 1540 ------- 0 3.0 4.0 12 37
+ 1.150366 4 1 ack 40 ------- 0 4.0 3.0 12 54
- 1.150366 4 1 ack 40 ------- 0 4.0 3.0 12 54
r 1.150366 1 2 tcp 1540 ------- 0 0.0 2.0 12 39
+ 1.150366 2 1 ack 40 ------- 0 2.0 0.0 12 55
- 1.150366 2 1 ack 40 ------- 0 2.0 0.0 12 55
r 1.151598 1 4 tcp 1540 ------- 0 3.0 4.0 13 40
+ 1.151598 4 1 ack 40 ------- 0 4.0 3.0 13 56
- 1.151598 4 1 ack 40 ------- 0 4.0 3.0 13 56
r 1.151598 1 2 tcp 1540 ------- 0 0.0 2.0 13 42
+ 1.151598 2 1 ack 40 ------- 0 2.0 0.0 13 57
- 1.151598 2 1 ack 40 ------- 0 2.0 0.0 13 57
r 1.15283 1 4 tcp 1540 ------- 0 3.0 4.0 14 41
+ 1.15283 4 1 ack 40 ------- 0 4.0 3.0 14 58
- 1.15283 4 1 ack 40 ------- 0 4.0 3.0 14 58
r 1.15283 1 2 tcp 1540 ------- 0 0.0 2.0 14 43
+ 1.15283 2 1 ack 40 ------- 0 2.0 0.0 14 59
- 1.15283 2 1 ack 40 ------- 0 2.0 0.0 14 59
r 1.154238 4 1 ack 40 ------- 0 4.0 3.0 7 44
+ 1.154238 1 3 ack 40 ------- 0 4.0 3.0 7 44
- 1.154238 1 3 ack 40 ------- 0 4.0 3.0 7 44
r 1.154238 2 1 ack 40 ------- 0 2.0 0.0 7 45
+ 1.154238 1 0 ack 40 ------- 0 2.0 0.0 7 45
- 1.154238 1 0 ack 40 ------- 0 2.0 0.0 7 45
r 1.15547 4 1 ack 40 ------- 0 4.0 3.0 8 46
+ 1.15547 1 3 ack 40 ------- 0 4.0 3.0 8 46
- 1.15547 1 3 ack 40 ------- 0 4.0 3.0 8 46
r 1.15547 2 1 ack 40 ------- 0 2.0 0.0 8 47
+ 1.15547 1 0 ack 40 ------- 0 2.0 0.0 8 47
- 1.15547 1 0 ack 40 ------- 0 2.0 0.0 8 47
r 1.156702 4 1 ack 40 ------- 0 4.0 3.0 9 48
+ 1.156702 1 3 ack 40 ------- 0 4.0 3.0 9 48
- 1.156702 1 3 ack 40 ------- 0 4.0 3.0 9 48
r 1.156702 2 1 ack 40 ------- 0 2.0 0.0 9 49
+ 1.156702 1 0 ack 40 ------- 0 2.0 0.0 9 49
- 1.156702 1 0 ack 40 ------- 0 2.0 0.0 9 49
r 1.157934 4 1 ack 40 ------- 0 4.0 3.0 10 50
+ 1.157934 1 3 ack 40 ------- 0 4.0 3.0 10 50
- 1.157934 1 3 ack 40 ------- 0 4.0 3.0 10 50
r 1.157934 2 1 ack 40 ------- 0 2.0 0.0 10 51
+ 1.157934 1 0 ack 40 ------- 0 2.0 0.0 10 51
- 1.157934 1 0 ack 40 ------- 0 2.0 0.0 10 51
r 1.159166 4 1 ack 40 ------- 0 4.0 3.0 11 52
+ 1.159166 1 3 ack 40 ------- 0 4.0 3.0 11 52
- 1.159166 1 3 ack 40 ------- 0 4.0 3.0 11 52
r 1.159166 2 1 ack 40 ------- 0 2.0 0.0 11 53
+ 1.159166 1 0 ack 40 ------- 0 2.0 0.0 11 53
- 1.159166 1 0 ack 40 ------- 0 2.0 0.0 11 53
r 1.160398 4 1 ack 40 ------- 0 4.0 3.0 12 54
+ 1.160398 1 3 ack 40 ------- 0 4.0 3.0 12 54
- 1.160398 1 3 ack 40 ------- 0 4.0 3.0 12 54
r 1.160398 2 1 ack 40 ------- 0 2.0 0.0 12 55
+ 1.160398 1 0 ack 40 ------- 0 2.0 0.0 12 55
- 1.160398 1 0 ack 40 ------- 0 2.0 0.0 12 55
r 1.16163 4 1 ack 40 ------- 0 4.0 3.0 13 56
+ 1.16163 1 3 ack 40 ------- 0 4.0 3.0 13 56
- 1.16163 1 3 ack 40 ------- 0 4.0 3.0 13 56
r 1.16163 2 1 ack 40 ------- 0 2.0 0.0 13 57
+ 1.16163 1 0 ack 40 ------- 0 2.0 0.0 13 57
- 1.16163 1 0 ack 40 ------- 0 2.0 0.0 13 57
r 1.162862 4 1 ack 40 ------- 0 4.0 3.0 14 58
+ 1.162862 1 3 ack 40 ------- 0 4.0 3.0 14 58
- 1.162862 1 3 ack 40 ------- 0 4.0 3.0 14 58
r 1.162862 2 1 ack 40 ------- 0 2.0 0.0 14 59
+ 1.162862 1 0 ack 40 ------- 0 2.0 0.0 14 59
- 1.162862 1 0 ack 40 ------- 0 2.0 0.0 14 59
r 1.164242 1 3 ack 40 ------- 0 4.0 3.0 7 44
+ 1.164242 3 1 tcp 1540 ------- 0 3.0 4.0 15 60
- 1.164242 3 1 tcp 1540 ------- 0 3.0 4.0 15 60
+ 1.164242 3 1 tcp 1540 ------- 0 3.0 4.0 16 61
r 1.164242 1 0 ack 40 ------- 0 2.0 0.0 7 45
+ 1.164242 0 1 tcp 1540 ------- 0 0.0 2.0 15 62
- 1.164242 0 1 tcp 1540 ------- 0 0.0 2.0 15 62
+ 1.164242 0 1 tcp 1540 ------- 0 0.0 2.0 16 63
- 1.164365 3 1 tcp 1540 ------- 0 3.0 4.0 16 61
- 1.164365 0 1 tcp 1540 ------- 0 0.0 2.0 16 63
r 1.165474 1 3 ack 40 ------- 0 4.0 3.0 8 46
+ 1.165474 3 1 tcp 1540 ------- 0 3.0 4.0 17 64
- 1.165474 3 1 tcp 1540 ------- 0 3.0 4.0 17 64
+ 1.165474 3 1 tcp 1540 ------- 0 3.0 4.0 18 65
r 1.165474 1 0 ack 40 ------- 0 2.0 0.0 8 47
+ 1.165474 0 1 tcp 1540 ------- 0 0.0 2.0 17 66
- 1.165474 0 1 tcp 1540 ------- 0 0.0 2.0 17 66
+ 1.165474 0 1 tcp 1540 ------- 0 0.0 2.0 18 67
- 1.165597 3 1 tcp 1540 ------- 0 3.0 4.0 18 65
- 1.165597 0 1 tcp 1540 ------- 0 0.0 2.0 18 67
r 1.166706 1 3 ack 40 ------- 0 4.0 3.0 9 48
+ 1.166706 3 1 tcp 1540 ------- 0 3.0 4.0 19 68
- 1.166706 3 1 tcp 1540 ------- 0 3.0 4.0 19 68
+ 1.166706 3 1 tcp 1540 ------- 0 3.0 4.0 20 69
r 1.166706 1 0 ack 40 ------- 0 2.0 0.0 9 49
+ 1.166706 0 1 tcp 1540 ------- 0 0.0 2.0 19 70
- 1.166706 0 1 tcp 1540 ------- 0 0.0 2.0 19 70
+ 1.166706 0 1 tcp 1540 ------- 0 0.0 2.0 20 71
- 1.166829 3 1 tcp 1540 ------- 0 3.0 4.0 20 69
- 1.166829 0 1 tcp 1540 ------- 0 0.0 2.0 20 71
r 1.167938 1 3 ack 40 ------- 0 4.0 3.0 10 50
+ 1.167938 3 1 tcp 1540 ------- 0 3.0 4.0 21 72
- 1.167938 3 1 tcp 1540 ------- 0 3.0 4.0 21 72
+ 1.167938 3 1 tcp 1540 ------- 0 3.0 4.0 22 73
r 1.167938 1 0 ack 40 ------- 0 2.0 0.0 10 51
+ 1.167938 0 1 tcp 1540 ------- 0 0.0 2.0 21 74
- 1.167938 0 1 tcp 1540 ------- 0 0.0 2.0 21 74
+ 1.167938 0 1 tcp 1540 ------- 0 0.0 2.0 22 75
- 1.168061 3 1 tcp 1540 ------- 0 3.0 4.0 22 73
- 1.168061 0 1 tcp 1540 ------- 0 0.0 2.0 22 75
r 1.16917 1 3 ack 40 ------- 0 4.0 3.0 11 52
+ 1.16917 3 1 tcp 1540 ------- 0 3.0 4.0 23 76
- 1.16917 3 1 tcp 1540 ------- 0 3.0 4.0 23 76
+ 1.16917 3 1 tcp 1540 ------- 0 3.0 4.0 24 77
r 1.16917 1 0 ack 40 ------- 0 2.0 0.0 11 53
+ 1.16917 0 1 tcp 1540 ------- 0 0.0 2.0 23 78
- 1.16917 0 1 tcp 1540 ------- 0 0.0 2.0 23 78
+ 1.16917 0 1 tcp 1540 ------- 0 0.0 2.0 24 79
- 1.169293 3 1 tcp 1540 ------- 0 3.0 4.0 24 77
- 1.169293 0 1 tcp 1540 ------- 0 0.0 2.0 24 79
r 1.170402 1 3 ack 40 ------- 0 4.0 3.0 12 54
+ 1.170402 3 1 tcp 1540 ------- 0 3.0 4.0 25 80
- 1.170402 3 1 tcp 1540 ------- 0 3.0 4.0 25 80
+ 1.170402 3 1 tcp 1540 ------- 0 3.0 4.0 26 81
r 1.170402 1 0 ack 40 ------- 0 2.0 0.0 12 55
+ 1.170402 0 1 tcp 1540 ------- 0 0.0 2.0 25 82
- 1.170402 0 1 tcp 1540 ------- 0 0.0 2.0 25 82
+ 1.170402 0 1 tcp 1540 ------- 0 0.0 2.0 26 83
- 1.170525 3 1 tcp 1540 ------- 0 3.0 4.0 26 81
- 1.170525 0 1 tcp 1540 ------- 0 0.0 2.0 26 83
r 1.171634 1 3 ack 40 ------- 0 4.0 3.0 13 56
+ 1.171634 3 1 tcp 1540 ------- 0 3.0 4.0 27 84
- 1.171634 3 1 tcp 1540 ------- 0 3.0 4.0 27 84
+ 1.171634 3 1 tcp 1540 ------- 0 3.0 4.0 28 85
r 1.171634 1 0 ack 40 ------- 0 2.0 0.0 13 57
+ 1.171634 0 1 tcp 1540 ------- 0 0.0 2.0 27 86
- 1.171634 0 1 tcp 1540 ------- 0 0.0 2.0 27 86
+ 1.171634 0 1 tcp 1540 ------- 0 0.0 2.0 28 87
- 1.171757 3 1 tcp 1540 ------- 0 3.0 4.0 28 85
- 1.171757 0 1 tcp 1540 ------- 0 0.0 2.0 28 87
r 1.172866 1 3 ack 40 ------- 0 4.0 3.0 14 58
+ 1.172866 3 1 tcp 1540 ------- 0 3.0 4.0 29 88
- 1.172866 3 1 tcp 1540 ------- 0 3.0 4.0 29 88
+ 1.172866 3 1 tcp 1540 ------- 0 3.0 4.0 30 89
r 1.172866 1 0 ack 40 ------- 0 2.0 0.0 14 59
+ 1.172866 0 1 tcp 1540 ------- 0 0.0 2.0 29 90
- 1.172866 0 1 tcp 1540 ------- 0 0.0 2.0 29 90
+ 1.172866 0 1 tcp 1540 ------- 0 0.0 2.0 30 91
- 1.172989 3 1 tcp 1540 ------- 0 3.0 4.0 30 89
- 1.172989 0 1 tcp 1540 ------- 0 0.0 2.0 30 91
r 1.174365 3 1 tcp 1540 ------- 0 3.0 4.0 15 60
+ 1.174365 1 4 tcp 1540 ------- 0 3.0 4.0 15 60
- 1.174365 1 4 tcp 1540 ------- 0 3.0 4.0 15 60
r 1.174365 0 1 tcp 1540 ------- 0 0.0 2.0 15 62
+ 1.174365 1 2 tcp 1540 ------- 0 0.0 2.0 15 62
- 1.174365 1 2 tcp 1540 ------- 0 0.0 2.0 15 62
r 1.174488 3 1 tcp 1540 ------- 0 3.0 4.0 16 61
+ 1.174488 1 4 tcp 1540 ------- 0 3.0 4.0 16 61
r 1.174488 0 1 tcp 1540 ------- 0 0.0 2.0 16 63
+ 1.174488 1 2 tcp 1540 ------- 0 0.0 2.0 16 63
r 1.175597 3 1 tcp 1540 ------- 0 3.0 4.0 17 64
+ 1.175597 1 4 tcp 1540 ------- 0 3.0 4.0 17 64
r 1.175597 0 1 tcp 1540 ------- 0 0.0 2.0 17 66
+ 1.175597 1 2 tcp 1540 ------- 0 0.0 2.0 17 66
- 1.175597 1 4 tcp 1540 ------- 0 3.0 4.0 16 61
- 1.175597 1 2 tcp 1540 ------- 0 0.0 2.0 16 63
r 1.17572 3 1 tcp 1540 ------- 0 3.0 4.0 18 65
+ 1.17572 1 4 tcp 1540 ------- 0 3.0 4.0 18 65
r 1.17572 0 1 tcp 1540 ------- 0 0.0 2.0 18 67
+ 1.17572 1 2 tcp 1540 ------- 0 0.0 2.0 18 67
r 1.176829 3 1 tcp 1540 ------- 0 3.0 4.0 19 68
+ 1.176829 1 4 tcp 1540 ------- 0 3.0 4.0 19 68
r 1.176829 0 1 tcp 1540 ------- 0 0.0 2.0 19 70
+ 1.176829 1 2 tcp 1540 ------- 0 0.0 2.0 19 70
- 1.176829 1 4 tcp 1540 ------- 0 3.0 4.0 17 64
- 1.176829 1 2 tcp 1540 ------- 0 0.0 2.0 17 66
r 1.176952 3 1 tcp 1540 ------- 0 3.0 4.0 20 69
+ 1.176952 1 4 tcp 1540 ------- 0 3.0 4.0 20 69
r 1.176952 0 1 tcp 1540 ------- 0 0.0 2.0 20 71
+ 1.176952 1 2 tcp 1540 ------- 0 0.0 2.0 20 71
r 1.178061 3 1 tcp 1540 ------- 0 3.0 4.0 21 72
+ 1.178061 1 4 tcp 1540 ------- 0 3.0 4.0 21 72
r 1.178061 0 1 tcp 1540 ------- 0 0.0 2.0 21 74
+ 1.178061 1 2 tcp 1540 ------- 0 0.0 2.0 21 74
- 1.178061 1 4 tcp 1540 ------- 0 3.0 4.0 18 65
- 1.178061 1 2 tcp 1540 ------- 0 0.0 2.0 18 67
r 1.178184 3 1 tcp 1540 ------- 0 3.0 4.0 22 73
+ 1.178184 1 4 tcp 1540 ------- 0 3.0 4.0 22 73
r 1.178184 0 1 tcp 1540 ------- 0 0.0 2.0 22 75
+ 1.178184 1 2 tcp 1540 ------- 0 0.0 2.0 22 75
r 1.179293 3 1 tcp 1540 ------- 0 3.0 4.0 23 76
+ 1.179293 1 4 tcp 1540 ------- 0 3.0 4.0 23 76
d 1.179293 1 4 tcp 1540 ------- 0 3.0 4.0 23 76
r 1.179293 0 1 tcp 1540 ------- 0 0.0 2.0 23 78
+ 1.179293 1 2 tcp 1540 ------- 0 0.0 2.0 23 78
- 1.179293 1 4 tcp 1540 ------- 0 3.0 4.0 19 68
- 1.179293 1 2 tcp 1540 ------- 0 0.0 2.0 19 70
r 1.179416 3 1 tcp 1540 ------- 0 3.0 4.0 24 77
+ 1.179416 1 4 tcp 1540 ------- 0 3.0 4.0 24 77
r 1.179416 0 1 tcp 1540 ------- 0 0.0 2.0 24 79
+ 1.179416 1 2 tcp 1540 ------- 0 0.0 2.0 24 79
r 1.180525 3 1 tcp 1540 ------- 0 3.0 4.0 25 80
+ 1.180525 1 4 tcp 1540 ------- 0 3.0 4.0 25 80
d 1.180525 1 4 tcp 1540 ------- 0 3.0 4.0 25 80
r 1.180525 0 1 tcp 1540 ------- 0 0.0 2.0 25 82
+ 1.180525 1 2 tcp 1540 ------- 0 0.0 2.0 25 82
- 1.180525 1 4 tcp 1540 ------- 0 3.0 4.0 20 69
- 1.180525 1 2 tcp 1540 ------- 0 0.0 2.0 20 71
r 1.180648 3 1 tcp 1540 ------- 0 3.0 4.0 26 81
+ 1.180648 1 4 tcp 1540 ------- 0 3.0 4.0 26 81
r 1.180648 0 1 tcp 1540 ------- 0 0.0 2.0 26 83
+ 1.180648 1 2 tcp 1540 ------- 0 0.0 2.0 26 83
r 1.181757 3 1 tcp 1540 ------- 0 3.0 4.0 27 84
+ 1.181757 1 4 tcp 1540 ------- 0 3.0 4.0 27 84
d 1.181757 1 4 tcp 1540 ------- 0 3.0 4.0 27 84
r 1.181757 0 1 tcp 1540 ------- 0 0.0 2.0 27 86
+ 1.181757 1 2 tcp 1540 ------- 0 0.0 2.0 27 86
- 1.181757 1 4 tcp 1540 ------- 0 3.0 4.0 21 72
- 1.181757 1 2 tcp 1540 ------- 0 0.0 2.0 21 74
r 1.18188 3 1 tcp 1540 ------- 0 3.0 4.0 28 85
+ 1.18188 1 4 tcp 1540 ------- 0 3.0 4.0 28 85
r 1.18188 0 1 tcp 1540 ------- 0 0.0 2.0 28 87
+ 1.18188 1 2 tcp 1540 ------- 0 0.0 2.0 28 87
r 1.182989 3 1 tcp 1540 ------- 0 3.0 4.0 29 88
+ 1.182989 1 4 tcp 1540 ------- 0 3.0 4.0 29 88
d 1.182989 1 4 tcp 1540 ------- 0 3.0 4.0 29 88
r 1.182989 0 1 tcp 1540 ------- 0 0.0 2.0 29 90
+ 1.182989 1 2 tcp 1540 ------- 0 0.0 2.0 29 90
- 1.182989 1 4 tcp 1540 ------- 0 3.0 4.0 22 73
- 1.182989 1 2 tcp 1540 ------- 0 0.0 2.0 22 75
r 1.183112 3 1 tcp 1540 ------- 0 3.0 4.0 30 89
+ 1.183112 1 4 tcp 1540 ------- 0 3.0 4.0 30 89
r 1.183112 0 1 tcp 1540 ------- 0 0.0 2.0 30 91
+ 1.183112 1 2 tcp 1540 ------- 0 0.0 2.0 30 91
- 1.184221 1 4 tcp 1540 ------- 0 3.0 4.0 24 77
- 1.184221 1 2 tcp 1540 ------- 0 0.0 2.0 23 78
- 1.185453 1 4 tcp 1540 ------- 0 3.0 4.0 26 81
- 1.185453 1 2 tcp 1540 ------- 0 0.0 2.0 24 79
r 1.185597 1 4 tcp 1540 ------- 0 3.0 4.0 15 60
+ 1.185597 4 1 ack 40 ------- 0 4.0 3.0 15 92
- 1.185597 4 1 ack 40 ------- 0 4.0 3.0 15 92
r 1.185597 1 2 tcp 1540 ------- 0 0.0 2.0 15 62
+ 1.185597 2 1 ack 40 ------- 0 2.0 0.0 15 93
- 1.185597 2 1 ack 40 ------- 0 2.0 0.0 15 93
- 1.186685 1 4 tcp 1540 ------- 0 3.0 4.0 28 85
- 1.186685 1 2 tcp 1540 ------- 0 0.0 2.0 25 82
r 1.186829 1 4 tcp 1540 ------- 0 3.0 4.0 16 61
+ 1.186829 4 1 ack 40 ------- 0 4.0 3.0 16 94
- 1.186829 4 1 ack 40 ------- 0 4.0 3.0 16 94
r 1.186829 1 2 tcp 1540 ------- 0 0.0 2.0 16 63
+ 1.186829 2 1 ack 40 ------- 0 2.0 0.0 16 95
- 1.186829 2 1 ack 40 ------- 0 2.0 0.0 16 95
- 1.187917 1 4 tcp 1540 ------- 0 3.0 4.0 30 89
- 1.187917 1 2 tcp 1540 ------- 0 0.0 2.0 26 83
r 1.188061 1 4 tcp 1540 ------- 0 3.0 4.0 17 64
+ 1.188061 4 1 ack 40 ------- 0 4.0 3.0 17 96
- 1.188061 4 1 ack 40 ------- 0 4.0 3.0 17 96
r 1.188061 1 2 tcp 1540 ------- 0 0.0 2.0 17 66
+ 1.188061 2 1 ack 40 ------- 0 2.0 0.0 17 97
- 1.188061 2 1 ack 40 ------- 0 2.0 0.0 17 97
- 1.189149 1 2 tcp 1540 ------- 0 0.0 2.0 27 86
r 1.189293 1 4 tcp 1540 ------- 0 3.0 4.0 18 65
+ 1.189293 4 1 ack 40 ------- 0 4.0 3.0 18 98
- 1.189293 4 1 ack 40 ------- 0 4.0 3.0 18 98
r 1.189293 1 2 tcp 1540 ------- 0 0.0 2.0 18 67
+ 1.189293 2 1 ack 40 ------- 0 2.0 0.0 18 99
- 1.189293 2 1 ack 40 ------- 0 2.0 0.0 18 99
- 1.190381 1 2 tcp 1540 ------- 0 0.0 2.0 28 87
r 1.190525 1 4 tcp 1540 ------- 0 3.0 4.0 19 68
+ 1.190525 4 1 ack 40 ------- 0 4.0 3.0 19 100
- 1.190525 4 1 ack 40 ------- 0 4.0 3.0 19 100
r 1.190525 1 2 tcp 1540 ------- 0 0.0 2.0 19 70
+ 1.190525 2 1 ack 40 ------- 0 2.0 0.0 19 101
- 1.190525 2 1 ack 40 ------- 0 2.0 0.0 19 101
- 1.191613 1 2 tcp 1540 ------- 0 0.0 2.0 29 90
r 1.191757 1 4 tcp 1540 ------- 0 3.0 4.0 20 69
+ 1.191757 4 1 ack 40 ------- 0 4.0 3.0 20 102
- 1.191757 4 1 ack 40 ------- 0 4.0 3.0 20 102
r 1.191757 1 2 tcp 1540 ------- 0 0.0 2.0 20 71
+ 1.191757 2 1 ack 40 ------- 0 2.0 0.0 20 103
- 1.191757 2 1 ack 40 ------- 0 2.0 0.0 20 103
- 1.192845 1 2 tcp 1540 ------- 0 0.0 2.0 30 91
r 1.192989 1 4 tcp 1540 ------- 0 3.0 4.0 21 72
+ 1.192989 4 1 ack 40 ------- 0 4.0 3.0 21 104
- 1.192989 4 1 ack 40 ------- 0 4.0 3.0 21 104
r 1.192989 1 2 tcp 1540 ------- 0 0.0 2.0 21 74
+ 1.192989 2 1 ack 40 ------- 0 2.0 0.0 21 105
- 1.192989 2 1 ack 40 ------- 0 2.0 0.0 21 105
r 1.194221 1 4 tcp 1540 ------- 0 3.0 4.0 22 73
+ 1.194221 4 1 ack 40 ------- 0 4.0 3.0 22 106
- 1.194221 4 1 ack 40 ------- 0 4.0 3.0 22 106
r 1.194221 1 2 tcp 1540 ------- 0 0.0 2.0 22 75
+ 1.194221 2 1 ack 40 ------- 0 2.0 0.0 22 107
- 1.194221 2 1 ack 40 ------- 0 2.0 0.0 22 107
r 1.195453 1 4 tcp 1540 ------- 0 3.0 4.0 24 77
+ 1.195453 4 1 ack 40 ------- 0 4.0 3.0 22 108
- 1.195453 4 1 ack 40 ------- 0 4.0 3.0 22 108
r 1.195453 1 2 tcp 1540 ------- 0 0.0 2.0 23 78
+ 1.195453 2 1 ack 40 ------- 0 2.0 0.0 23 109
- 1.195453 2 1 ack 40 ------- 0 2.0 0.0 23 109
r 1.195629 4 1 ack 40 ------- 0 4.0 3.0 15 92
+ 1.195629 1 3 ack 40 ------- 0 4.0 3.0 15 92
- 1.195629 1 3 ack 40 ------- 0 4.0 3.0 15 92
r 1.195629 2 1 ack 40 ------- 0 2.0 0.0 15 93
+ 1.195629 1 0 ack 40 ------- 0 2.0 0.0 15 93
- 1.195629 1 0 ack 40 ------- 0 2.0 0.0 15 93
r 1.196685 1 4 tcp 1540 ------- 0 3.0 4.0 26 81
+ 1.196685 4 1 ack 40 ------- 0 4.0 3.0 22 110
- 1.196685 4 1 ack 40 ------- 0 4.0 3.0 22 110
r 1.196685 1 2 tcp 1540 ------- 0 0.0 2.0 24 79
+ 1.196685 2 1 ack 40 ------- 0 2.0 0.0 24 111
- 1.196685 2 1 ack 40 ------- 0 2.0 0.0 24 111
r 1.196861 4 1 ack 40 ------- 0 4.0 3.0 16 94
+ 1.196861 1 3 ack 40 ------- 0 4.0 3.0 16 94
- 1.196861 1 3 ack 40 ------- 0 4.0 3.0 16 94
r 1.196861 2 1 ack 40 ------- 0 2.0 0.0 16 95
+ 1.196861 1 0 ack 40 ------- 0 2.0 0.0 16 95
- 1.196861 1 0 ack 40 ------- 0 2.0 0.0 16 95
r 1.197917 1 4 tcp 1540 ------- 0 3.0 4.0 28 85
+ 1.197917 4 1 ack 40 ------- 0 4.0 3.0 22 112
- 1.197917 4 1 ack 40 ------- 0 4.0 3.0 22 112
r 1.197917 1 2 tcp 1540 ------- 0 0.0 2.0 25 82
+ 1.197917 2 1 ack 40 ------- 0 2.0 0.0 25 113
- 1.197917 2 1 ack 40 ------- 0 2.0 0.0 25 113
r 1.198093 4 1 ack 40 ------- 0 4.0 3.0 17 96
+ 1.198093 1 3 ack 40 ------- 0 4.0 3.0 17 96
- 1.198093 1 3 ack 40 ------- 0 4.0 3.0 17 96
r 1.198093 2 1 ack 40 ------- 0 2.0 0.0 17 97
+ 1.198093 1 0 ack 40 ------- 0 2.0 0.0 17 97
- 1.198093 1 0 ack 40 ------- 0 2.0 0.0 17 97
r 1.199149 1 4 tcp 1540 ------- 0 3.0 4.0 30 89
+ 1.199149 4 1 ack 40 ------- 0 4.0 3.0 22 114
- 1.199149 4 1 ack 40 ------- 0 4.0 3.0 22 114
r 1.199149 1 2 tcp 1540 ------- 0 0.0 2.0 26 83
+ 1.199149 2 1 ack 40 ------- 0 2.0 0.0 26 115
- 1.199149 2 1 ack 40 ------- 0 2.0 0.0 26 115
r 1.199325 4 1 ack 40 ------- 0 4.0 3.0 18 98
+ 1.199325 1 3 ack 40 ------- 0 4.0 3.0 18 98
- 1.199325 1 3 ack 40 ------- 0 4.0 3.0 18 98
r 1.199325 2 1 ack 40 ------- 0 2.0 0.0 18 99
+ 1.199325 1 0 ack 40 ------- 0 2.0 0.0 18 99
- 1.199325 1 0 ack 40 ------- 0 2.0 0.0 18 99
r 1.200381 1 2 tcp 1540 ------- 0 0.0 2.0 27 86
+ 1.200381 2 1 ack 40 ------- 0 2.0 0.0 27 116
- 1.200381 2 1 ack 40 ------- 0 2.0 0.0 27 116
r 1.200557 4 1 ack 40 ------- 0 4.0 3.0 19 100
+ 1.200557 1 3 ack 40 ------- 0 4.0 3.0 19 100
- 1.200557 1 3 ack 40 ------- 0 4.0 3.0 19 100
r 1.200557 2 1 ack 40 ------- 0 2.0 0.0 19 101
+ 1.200557 1 0 ack 40 ------- 0 2.0 0.0 19 101
- 1.200557 1 0 ack 40 ------- 0 2.0 0.0 19 101
r 1.201613 1 2 tcp 1540 ------- 0 0.0 2.0 28 87
+ 1.201613 2 1 ack 40 ------- 0 2.0 0.0 28 117
- 1.201613 2 1 ack 40 ------- 0 2.0 0.0 28 117
r 1.201789 4 1 ack 40 ------- 0 4.0 3.0 20 102
+ 1.201789 1 3 ack 40 ------- 0 4.0 3.0 20 102
- 1.201789 1 3 ack 40 ------- 0 4.0 3.0 20 102
r 1.201789 2 1 ack 40 ------- 0 2.0 0.0 20 103
+ 1.201789 1 0 ack 40 ------- 0 2.0 0.0 20 103
- 1.201789 1 0 ack 40 ------- 0 2.0 0.0 20 103
r 1.202845 1 2 tcp 1540 ------- 0 0.0 2.0 29 90
+ 1.202845 2 1 ack 40 ------- 0 2.0 0.0 29 118
- 1.202845 2 1 ack 40 ------- 0 2.0 0.0 29 118
r 1.203021 4 1 ack 40 ------- 0 4.0 3.0 21 104
+ 1.203021 1 3 ack 40 ------- 0 4.0 3.0 21 104
- 1.203021 1 3 ack 40 ------- 0 4.0 3.0 21 104
r 1.203021 2 1 ack 40 ------- 0 2.0 0.0 21 105
+ 1.203021 1 0 ack 40 ------- 0 2.0 0.0 21 105
- 1.203021 1 0 ack 40 ------- 0 2.0 0.0 21 105
r 1.204077 1 2 tcp 1540 ------- 0 0.0 2.0 30 91