+ 1 0 1 tcp 40 ------- 0 0.0 2.0 0 0
- 1 0 1 tcp 40 ------- 0 0.0 2.0 0 0
r 1.010003 0 1 tcp 40 ------- 0 0.0 2.0 0 0
+ 1.010003 1 2 tcp 40 ------- 0 0.0 2.0 0 0
- 1.010003 1 2 tcp 40 ------- 0 0.0 2.0 0 0
r 1.020035 1 2 tcp 40 ------- 0 0.0 2.0 0 0
+ 1.020035 2 1 ack 40 ------- 0 2.0 0.0 0 1
- 1.020035 2 1 ack 40 ------- 0 2.0 0.0 0 1
r 1.030067 2 1 ack 40 ------- 0 2.0 0.0 0 1
+ 1.030067 1 0 ack 40 ------- 0 2.0 0.0 0 1
- 1.030067 1 0 ack 40 ------- 0 2.0 0.0 0 1
r 1.04007 1 0 ack 40 ------- 0 2.0 0.0 0 1
+ 1.04007 0 1 tcp 1540 ------- 0 0.0 2.0 1 2
- 1.04007 0 1 tcp 1540 ------- 0 0.0 2.0 1 2
+ 1.04007 0 1 tcp 1540 ------- 0 0.0 2.0 2 3
- 1.040194 0 1 tcp 1540 ------- 0 0.0 2.0 2 3
r 1.050194 0 1 tcp 1540 ------- 0 0.0 2.0 1 2
+ 1.050194 1 2 tcp 1540 ------- 0 0.0 2.0 1 2
- 1.050194 1 2 tcp 1540 ------- 0 0.0 2.0 1 2
r 1.050317 0 1 tcp 1540 ------- 0 0.0 2.0 2 3
+ 1.050317 1 2 tcp 1540 ------- 0 0.0 2.0 2 3
- 1.051426 1 2 tcp 1540 ------- 0 0.0 2.0 2 3
r 1.061426 1 2 tcp 1540 ------- 0 0.0 2.0 1 2
+ 1.061426 2 1 ack 40 ------- 0 2.0 0.0 1 4
- 1.061426 2 1 ack 40 ------- 0 2.0 0.0 1 4
r 1.062658 1 2 tcp 1540 ------- 0 0.0 2.0 2 3
+ 1.062658 2 1 ack 40 ------- 0 2.0 0.0 2 5
- 1.062658 2 1 ack 40 ------- 0 2.0 0.0 2 5
r 1.071458 2 1 ack 40 ------- 0 2.0 0.0 1 4
+ 1.071458 1 0 ack 40 ------- 0 2.0 0.0 1 4
- 1.071458 1 0 ack 40 ------- 0 2.0 0.0 1 4
r 1.07269 2 1 ack 40 ------- 0 2.0 0.0 2 5
+ 1.07269 1 0 ack 40 ------- 0 2.0 0.0 2 5
- 1.07269 1 0 ack 40 ------- 0 2.0 0.0 2 5
r 1.081461 1 0 ack 40 ------- 0 2.0 0.0 1 4
+ 1.081461 0 1 tcp 1540 ------- 0 0.0 2.0 3 6
- 1.081461 0 1 tcp 1540 ------- 0 0.0 2.0 3 6
+ 1.081461 0 1 tcp 1540 ------- 0 0.0 2.0 4 7
- 1.081584 0 1 tcp 1540 ------- 0 0.0 2.0 4 7
r 1.082693 1 0 ack 40 ------- 0 2.0 0.0 2 5
+ 1.082693 0 1 tcp 1540 ------- 0 0.0 2.0 5 8
- 1.082693 0 1 tcp 1540 ------- 0 0.0 2.0 5 8
+ 1.082693 0 1 tcp 1540 ------- 0 0.0 2.0 6 9
- 1.082816 0 1 tcp 1540 ------- 0 0.0 2.0 6 9
r 1.091584 0 1 tcp 1540 ------- 0 0.0 2.0 3 6
+ 1.091584 1 2 tcp 1540 ------- 0 0.0 2.0 3 6
- 1.091584 1 2 tcp 1540 ------- 0 0.0 2.0 3 6
r 1.091707 0 1 tcp 1540 ------- 0 0.0 2.0 4 7
+ 1.091707 1 2 tcp 1540 ------- 0 0.0 2.0 4 7
r 1.092816 0 1 tcp 1540 ------- 0 0.0 2.0 5 8
+ 1.092816 1 2 tcp 1540 ------- 0 0.0 2.0 5 8
- 1.092816 1 2 tcp 1540 ------- 0 0.0 2.0 4 7
r 1.092939 0 1 tcp 1540 ------- 0 0.0 2.0 6 9
+ 1.092939 1 2 tcp 1540 ------- 0 0.0 2.0 6 9
- 1.094048 1 2 tcp 1540 ------- 0 0.0 2.0 5 8
- 1.09528 1 2 tcp 1540 ------- 0 0.0 2.0 6 9
r 1.102816 1 2 tcp 1540 ------- 0 0.0 2.0 3 6
+ 1.102816 2 1 ack 40 ------- 0 2.0 0.0 3 10
- 1.102816 2 1 ack 40 ------- 0 2.0 0.0 3 10
r 1.104048 1 2 tcp 1540 ------- 0 0.0 2.0 4 7
+ 1.104048 2 1 ack 40 ------- 0 2.0 0.0 4 11
- 1.104048 2 1 ack 40 ------- 0 2.0 0.0 4 11
r 1.10528 1 2 tcp 1540 ------- 0 0.0 2.0 5 8
+ 1.10528 2 1 ack 40 ------- 0 2.0 0.0 5 12
- 1.10528 2 1 ack 40 ------- 0 2.0 0.0 5 12
r 1.106512 1 2 tcp 1540 ------- 0 0.0 2.0 6 9
+ 1.106512 2 1 ack 40 ------- 0 2.0 0.0 6 13
- 1.106512 2 1 ack 40 ------- 0 2.0 0.0 6 13
r 1.112848 2 1 ack 40 ------- 0 2.0 0.0 3 10
+ 1.112848 1 0 ack 40 ------- 0 2.0 0.0 3 10
- 1.112848 1 0 ack 40 ------- 0 2.0 0.0 3 10
r 1.11408 2 1 ack 40 ------- 0 2.0 0.0 4 11
+ 1.11408 1 0 ack 40 ------- 0 2.0 0.0 4 11
- 1.11408 1 0 ack 40 ------- 0 2.0 0.0 4 11
r 1.115312 2 1 ack 40 ------- 0 2.0 0.0 5 12
+ 1.115312 1 0 ack 40 ------- 0 2.0 0.0 5 12
- 1.115312 1 0 ack 40 ------- 0 2.0 0.0 5 12
r 1.116544 2 1 ack 40 ------- 0 2.0 0.0 6 13
+ 1.116544 1 0 ack 40 ------- 0 2.0 0.0 6 13
- 1.116544 1 0 ack 40 ------- 0 2.0 0.0 6 13
r 1.122851 1 0 ack 40 ------- 0 2.0 0.0 3 10
+ 1.122851 0 1 tcp 1540 ------- 0 0.0 2.0 7 14
- 1.122851 0 1 tcp 1540 ------- 0 0.0 2.0 7 14
+ 1.122851 0 1 tcp 1540 ------- 0 0.0 2.0 8 15
- 1.122974 0 1 tcp 1540 ------- 0 0.0 2.0 8 15
r 1.124083 1 0 ack 40 ------- 0 2.0 0.0 4 11
+ 1.124083 0 1 tcp 1540 ------- 0 0.0 2.0 9 16
- 1.124083 0 1 tcp 1540 ------- 0 0.0 2.0 9 16
+ 1.124083 0 1 tcp 1540 ------- 0 0.0 2.0 10 17
- 1.124206 0 1 tcp 1540 ------- 0 0.0 2.0 10 17
r 1.125315 1 0 ack 40 ------- 0 2.0 0.0 5 12
+ 1.125315 0 1 tcp 1540 ------- 0 0.0 2.0 11 18
- 1.125315 0 1 tcp 1540 ------- 0 0.0 2.0 11 18
+ 1.125315 0 1 tcp 1540 ------- 0 0.0 2.0 12 19
- 1.125438 0 1 tcp 1540 ------- 0 0.0 2.0 12 19
r 1.126547 1 0 ack 40 ------- 0 2.0 0.0 6 13
+ 1.126547 0 1 tcp 1540 ------- 0 0.0 2.0 13 20
- 1.126547 0 1 tcp 1540 ------- 0 0.0 2.0 13 20
+ 1.126547 0 1 tcp 1540 ------- 0 0.0 2.0 14 21
- 1.12667 0 1 tcp 1540 ------- 0 0.0 2.0 14 21
r 1.132974 0 1 tcp 1540 ------- 0 0.0 2.0 7 14
+ 1.132974 1 2 tcp 1540 ------- 0 0.0 2.0 7 14
- 1.132974 1 2 tcp 1540 ------- 0 0.0 2.0 7 14
r 1.133098 0 1 tcp 1540 ------- 0 0.0 2.0 8 15
+ 1.133098 1 2 tcp 1540 ------- 0 0.0 2.0 8 15
r 1.134206 0 1 tcp 1540 ------- 0 0.0 2.0 9 16
+ 1.134206 1 2 tcp 1540 ------- 0 0.0 2.0 9 16
- 1.134206 1 2 tcp 1540 ------- 0 0.0 2.0 8 15
r 1.13433 0 1 tcp 1540 ------- 0 0.0 2.0 10 17
+ 1.13433 1 2 tcp 1540 ------- 0 0.0 2.0 10 17
r 1.135438 0 1 tcp 1540 ------- 0 0.0 2.0 11 18
+ 1.135438 1 2 tcp 1540 ------- 0 0.0 2.0 11 18
- 1.135438 1 2 tcp 1540 ------- 0 0.0 2.0 9 16
r 1.135562 0 1 tcp 1540 ------- 0 0.0 2.0 12 19
+ 1.135562 1 2 tcp 1540 ------- 0 0.0 2.0 12 19
r 1.13667 0 1 tcp 1540 ------- 0 0.0 2.0 13 20
+ 1.13667 1 2 tcp 1540 ------- 0 0.0 2.0 13 20
- 1.13667 1 2 tcp 1540 ------- 0 0.0 2.0 10 17
r 1.136794 0 1 tcp 1540 ------- 0 0.0 2.0 14 21
+ 1.136794 1 2 tcp 1540 ------- 0 0.0 2.0 14 21
- 1.137902 1 2 tcp 1540 ------- 0 0.0 2.0 11 18
- 1.139134 1 2 tcp 1540 ------- 0 0.0 2.0 12 19
- 1.140366 1 2 tcp 1540 ------- 0 0.0 2.0 13 20
- 1.141598 1 2 tcp 1540 ------- 0 0.0 2.0 14 21
r 1.144206 1 2 tcp 1540 ------- 0 0.0 2.0 7 14
+ 1.144206 2 1 ack 40 ------- 0 2.0 0.0 7 22
- 1.144206 2 1 ack 40 ------- 0 2.0 0.0 7 22
r 1.145438 1 2 tcp 1540 ------- 0 0.0 2.0 8 15
+ 1.145438 2 1 ack 40 ------- 0 2.0 0.0 8 23
- 1.145438 2 1 ack 40 ------- 0 2.0 0.0 8 23
r 1.14667 1 2 tcp 1540 ------- 0 0.0 2.0 9 16
+ 1.14667 2 1 ack 40 ------- 0 2.0 0.0 9 24
- 1.14667 2 1 ack 40 ------- 0 2.0 0.0 9 24
r 1.147902 1 2 tcp 1540 ------- 0 0.0 2.0 10 17
+ 1.147902 2 1 ack 40 ------- 0 2.0 0.0 10 25
- 1.147902 2 1 ack 40 ------- 0 2.0 0.0 10 25
r 1.149134 1 2 tcp 1540 ------- 0 0.0 2.0 11 18
+ 1.149134 2 1 ack 40 ------- 0 2.0 0.0 11 26
- 1.149134 2 1 ack 40 ------- 0 2.0 0.0 11 26
r 1.150366 1 2 tcp 1540 ------- 0 0.0 2.0 12 19
+ 1.150366 2 1 ack 40 ------- 0 2.0 0.0 12 27
- 1.150366 2 1 ack 40 ------- 0 2.0 0.0 12 27
r 1.151598 1 2 tcp 1540 ------- 0 0.0 2.0 13 20
+ 1.151598 2 1 ack 40 ------- 0 2.0 0.0 13 28
- 1.151598 2 1 ack 40 ------- 0 2.0 0.0 13 28
r 1.15283 1 2 tcp 1540 ------- 0 0.0 2.0 14 21
+ 1.15283 2 1 ack 40 ------- 0 2.0 0.0 14 29
- 1.15283 2 1 ack 40 ------- 0 2.0 0.0 14 29
r 1.154238 2 1 ack 40 ------- 0 2.0 0.0 7 22
+ 1.154238 1 0 ack 40 ------- 0 2.0 0.0 7 22
- 1.154238 1 0 ack 40 ------- 0 2.0 0.0 7 22
r 1.15547 2 1 ack 40 ------- 0 2.0 0.0 8 23
+ 1.15547 1 0 ack 40 ------- 0 2.0 0.0 8 23
- 1.15547 1 0 ack 40 ------- 0 2.0 0.0 8 23
r 1.156702 2 1 ack 40 ------- 0 2.0 0.0 9 24
+ 1.156702 1 0 ack 40 ------- 0 2.0 0.0 9 24
- 1.156702 1 0 ack 40 ------- 0 2.0 0.0 9 24
r 1.157934 2 1 ack 40 ------- 0 2.0 0.0 10 25
+ 1.157934 1 0 ack 40 ------- 0 2.0 0.0 10 25
- 1.157934 1 0 ack 40 ------- 0 2.0 0.0 10 25
r 1.159166 2 1 ack 40 ------- 0 2.0 0.0 11 26
+ 1.159166 1 0 ack 40 ------- 0 2.0 0.0 11 26
- 1.159166 1 0 ack 40 ------- 0 2.0 0.0 11 26
r 1.160398 2 1 ack 40 ------- 0 2.0 0.0 12 27
+ 1.160398 1 0 ack 40 ------- 0 2.0 0.0 12 27
- 1.160398 1 0 ack 40 ------- 0 2.0 0.0 12 27
r 1.16163 2 1 ack 40 ------- 0 2.0 0.0 13 28
+ 1.16163 1 0 ack 40 ------- 0 2.0 0.0 13 28
- 1.16163 1 0 ack 40 ------- 0 2.0 0.0 13 28
r 1.162862 2 1 ack 40 ------- 0 2.0 0.0 14 29
+ 1.162862 1 0 ack 40 ------- 0 2.0 0.0 14 29
- 1.162862 1 0 ack 40 ------- 0 2.0 0.0 14 29
r 1.164242 1 0 ack 40 ------- 0 2.0 0.0 7 22
+ 1.164242 0 1 tcp 1540 ------- 0 0.0 2.0 15 30
- 1.164242 0 1 tcp 1540 ------- 0 0.0 2.0 15 30
+ 1.164242 0 1 tcp 1540 ------- 0 0.0 2.0 16 31
- 1.164365 0 1 tcp 1540 ------- 0 0.0 2.0 16 31
r 1.165474 1 0 ack 40 ------- 0 2.0 0.0 8 23
+ 1.165474 0 1 tcp 1540 ------- 0 0.0 2.0 17 32
- 1.165474 0 1 tcp 1540 ------- 0 0.0 2.0 17 32
+ 1.165474 0 1 tcp 1540 ------- 0 0.0 2.0 18 33
- 1.165597 0 1 tcp 1540 ------- 0 0.0 2.0 18 33
r 1.166706 1 0 ack 40 ------- 0 2.0 0.0 9 24
+ 1.166706 0 1 tcp 1540 ------- 0 0.0 2.0 19 34
- 1.166706 0 1 tcp 1540 ------- 0 0.0 2.0 19 34
+ 1.166706 0 1 tcp 1540 ------- 0 0.0 2.0 20 35
- 1.166829 0 1 tcp 1540 ------- 0 0.0 2.0 20 35
r 1.167938 1 0 ack 40 ------- 0 2.0 0.0 10 25
+ 1.167938 0 1 tcp 1540 ------- 0 0.0 2.0 21 36
- 1.167938 0 1 tcp 1540 ------- 0 0.0 2.0 21 36
+ 1.167938 0 1 tcp 1540 ------- 0 0.0 2.0 22 37
- 1.168061 0 1 tcp 1540 ------- 0 0.0 2.0 22 37
r 1.16917 1 0 ack 40 ------- 0 2.0 0.0 11 26
+ 1.16917 0 1 tcp 1540 ------- 0 0.0 2.0 23 38
- 1.16917 0 1 tcp 1540 ------- 0 0.0 2.0 23 38
+ 1.16917 0 1 tcp 1540 ------- 0 0.0 2.0 24 39
- 1.169293 0 1 tcp 1540 ------- 0 0.0 2.0 24 39
r 1.170402 1 0 ack 40 ------- 0 2.0 0.0 12 27
+ 1.170402 0 1 tcp 1540 ------- 0 0.0 2.0 25 40
- 1.170402 0 1 tcp 1540 ------- 0 0.0 2.0 25 40
+ 1.170402 0 1 tcp 1540 ------- 0 0.0 2.0 26 41
- 1.170525 0 1 tcp 1540 ------- 0 0.0 2.0 26 41
r 1.171634 1 0 ack 40 ------- 0 2.0 0.0 13 28
+ 1.171634 0 1 tcp 1540 ------- 0 0.0 2.0 27 42
- 1.171634 0 1 tcp 1540 ------- 0 0.0 2.0 27 42
+ 1.171634 0 1 tcp 1540 ------- 0 0.0 2.0 28 43
- 1.171757 0 1 tcp 1540 ------- 0 0.0 2.0 28 43
r 1.172866 1 0 ack 40 ------- 0 2.0 0.0 14 29
+ 1.172866 0 1 tcp 1540 ------- 0 0.0 2.0 29 44
- 1.172866 0 1 tcp 1540 ------- 0 0.0 2.0 29 44
+ 1.172866 0 1 tcp 1540 ------- 0 0.0 2.0 30 45
- 1.172989 0 1 tcp 1540 ------- 0 0.0 2.0 30 45
r 1.174365 0 1 tcp 1540 ------- 0 0.0 2.0 15 30
+ 1.174365 1 2 tcp 1540 ------- 0 0.0 2.0 15 30
- 1.174365 1 2 tcp 1540 ------- 0 0.0 2.0 15 30
r 1.174488 0 1 tcp 1540 ------- 0 0.0 2.0 16 31
+ 1.174488 1 2 tcp 1540 ------- 0 0.0 2.0 16 31
r 1.175597 0 1 tcp 1540 ------- 0 0.0 2.0 17 32
+ 1.175597 1 2 tcp 1540 ------- 0 0.0 2.0 17 32
- 1.175597 1 2 tcp 1540 ------- 0 0.0 2.0 16 31
r 1.17572 0 1 tcp 1540 ------- 0 0.0 2.0 18 33
+ 1.17572 1 2 tcp 1540 ------- 0 0.0 2.0 18 33
r 1.176829 0 1 tcp 1540 ------- 0 0.0 2.0 19 34
+ 1.176829 1 2 tcp 1540 ------- 0 0.0 2.0 19 34
- 1.176829 1 2 tcp 1540 ------- 0 0.0 2.0 17 32
r 1.176952 0 1 tcp 1540 ------- 0 0.0 2.0 20 35
+ 1.176952 1 2 tcp 1540 ------- 0 0.0 2.0 20 35
r 1.178061 0 1 tcp 1540 ------- 0 0.0 2.0 21 36
+ 1.178061 1 2 tcp 1540 ------- 0 0.0 2.0 21 36
- 1.178061 1 2 tcp 1540 ------- 0 0.0 2.0 18 33
r 1.178184 0 1 tcp 1540 ------- 0 0.0 2.0 22 37
+ 1.178184 1 2 tcp 1540 ------- 0 0.0 2.0 22 37
r 1.179293 0 1 tcp 1540 ------- 0 0.0 2.0 23 38
+ 1.179293 1 2 tcp 1540 ------- 0 0.0 2.0 23 38
d 1.179293 1 2 tcp 1540 ------- 0 0.0 2.0 23 38
- 1.179293 1 2 tcp 1540 ------- 0 0.0 2.0 19 34
r 1.179416 0 1 tcp 1540 ------- 0 0.0 2.0 24 39
+ 1.179416 1 2 tcp 1540 ------- 0 0.0 2.0 24 39
r 1.180525 0 1 tcp 1540 ------- 0 0.0 2.0 25 40
+ 1.180525 1 2 tcp 1540 ------- 0 0.0 2.0 25 40
d 1.180525 1 2 tcp 1540 ------- 0 0.0 2.0 25 40
- 1.180525 1 2 tcp 1540 ------- 0 0.0 2.0 20 35
r 1.180648 0 1 tcp 1540 ------- 0 0.0 2.0 26 41
+ 1.180648 1 2 tcp 1540 ------- 0 0.0 2.0 26 41
r 1.181757 0 1 tcp 1540 ------- 0 0.0 2.0 27 42
+ 1.181757 1 2 tcp 1540 ------- 0 0.0 2.0 27 42
d 1.181757 1 2 tcp 1540 ------- 0 0.0 2.0 27 42
- 1.181757 1 2 tcp 1540 ------- 0 0.0 2.0 21 36
r 1.18188 0 1 tcp 1540 ------- 0 0.0 2.0 28 43
+ 1.18188 1 2 tcp 1540 ------- 0 0.0 2.0 28 43
r 1.182989 0 1 tcp 1540 ------- 0 0.0 2.0 29 44
+ 1.182989 1 2 tcp 1540 ------- 0 0.0 2.0 29 44
d 1.182989 1 2 tcp 1540 ------- 0 0.0 2.0 29 44
- 1.182989 1 2 tcp 1540 ------- 0 0.0 2.0 22 37
r 1.183112 0 1 tcp 1540 ------- 0 0.0 2.0 30 45
+ 1.183112 1 2 tcp 1540 ------- 0 0.0 2.0 30 45
- 1.184221 1 2 tcp 1540 ------- 0 0.0 2.0 24 39
- 1.185453 1 2 tcp 1540 ------- 0 0.0 2.0 26 41
r 1.185597 1 2 tcp 1540 ------- 0 0.0 2.0 15 30
+ 1.185597 2 1 ack 40 ------- 0 2.0 0.0 15 46
- 1.185597 2 1 ack 40 ------- 0 2.0 0.0 15 46
- 1.186685 1 2 tcp 1540 ------- 0 0.0 2.0 28 43
r 1.186829 1 2 tcp 1540 ------- 0 0.0 2.0 16 31
+ 1.186829 2 1 ack 40 ------- 0 2.0 0.0 16 47
- 1.186829 2 1 ack 40 ------- 0 2.0 0.0 16 47
- 1.187917 1 2 tcp 1540 ------- 0 0.0 2.0 30 45
r 1.188061 1 2 tcp 1540 ------- 0 0.0 2.0 17 32
+ 1.188061 2 1 ack 40 ------- 0 2.0 0.0 17 48
- 1.188061 2 1 ack 40 ------- 0 2.0 0.0 17 48
r 1.189293 1 2 tcp 1540 ------- 0 0.0 2.0 18 33
+ 1.189293 2 1 ack 40 ------- 0 2.0 0.0 18 49
- 1.189293 2 1 ack 40 ------- 0 2.0 0.0 18 49
r 1.190525 1 2 tcp 1540 ------- 0 0.0 2.0 19 34
+ 1.190525 2 1 ack 40 ------- 0 2.0 0.0 19 50
- 1.190525 2 1 ack 40 ------- 0 2.0 0.0 19 50
r 1.191757 1 2 tcp 1540 ------- 0 0.0 2.0 20 35
+ 1.191757 2 1 ack 40 ------- 0 2.0 0.0 20 51
- 1.191757 2 1 ack 40 ------- 0 2.0 0.0 20 51
r 1.192989 1 2 tcp 1540 ------- 0 0.0 2.0 21 36
+ 1.192989 2 1 ack 40 ------- 0 2.0 0.0 21 52
- 1.192989 2 1 ack 40 ------- 0 2.0 0.0 21 52
r 1.194221 1 2 tcp 1540 ------- 0 0.0 2.0 22 37
+ 1.194221 2 1 ack 40 ------- 0 2.0 0.0 22 53
- 1.194221 2 1 ack 40 ------- 0 2.0 0.0 22 53
r 1.195453 1 2 tcp 1540 ------- 0 0.0 2.0 24 39
+ 1.195453 2 1 ack 40 ------- 0 2.0 0.0 22 54
- 1.195453 2 1 ack 40 ------- 0 2.0 0.0 22 54
r 1.195629 2 1 ack 40 ------- 0 2.0 0.0 15 46
+ 1.195629 1 0 ack 40 ------- 0 2.0 0.0 15 46
- 1.195629 1 0 ack 40 ------- 0 2.0 0.0 15 46
r 1.196685 1 2 tcp 1540 ------- 0 0.0 2.0 26 41
+ 1.196685 2 1 ack 40 ------- 0 2.0 0.0 22 55
- 1.196685 2 1 ack 40 ------- 0 2.0 0.0 22 55
r 1.196861 2 1 ack 40 ------- 0 2.0 0.0 16 47
+ 1.196861 1 0 ack 40 ------- 0 2.0 0.0 16 47
- 1.196861 1 0 ack 40 ------- 0 2.0 0.0 16 47
r 1.197917 1 2 tcp 1540 ------- 0 0.0 2.0 28 43
+ 1.197917 2 1 ack 40 ------- 0 2.0 0.0 22 56
- 1.197917 2 1 ack 40 ------- 0 2.0 0.0 22 56
r 1.198093 2 1 ack 40 ------- 0 2.0 0.0 17 48
+ 1.198093 1 0 ack 40 ------- 0 2.0 0.0 17 48
- 1.198093 1 0 ack 40 ------- 0 2.0 0.0 17 48
r 1.199149 1 2 tcp 1540 ------- 0 0.0 2.0 30 45
+ 1.199149 2 1 ack 40 ------- 0 2.0 0.0 22 57
- 1.199149 2 1 ack 40 ------- 0 2.0 0.0 22 57
r 1.199325 2 1 ack 40 ------- 0 2.0 0.0 18 49
+ 1.199325 1 0 ack 40 ------- 0 2.0 0.0 18 49
- 1.199325 1 0 ack 40 ------- 0 2.0 0.0 18 49
r 1.200557 2 1 ack 40 ------- 0 2.0 0.0 19 50
+ 1.200557 1 0 ack 40 ------- 0 2.0 0.0 19 50
- 1.200557 1 0 ack 40 ------- 0 2.0 0.0 19 50
r 1.201789 2 1 ack 40 ------- 0 2.0 0.0 20 51
+ 1.201789 1 0 ack 40 ------- 0 2.0 0.0 20 51
- 1.201789 1 0 ack 40 ------- 0 2.0 0.0 20 51
r 1.203021 2 1 ack 40 ------- 0 2.0 0.0 21 52
+ 1.203021 1 0 ack 40 ------- 0 2.0 0.0 21 52
- 1.203021 1 0 ack 40 ------- 0 2.0 0.0 21 52
r 1.204253 2 1 ack 40 ------- 0 2.0 0.0 22 53
+ 1.204253 1 0 ack 40 ------- 0 2.0 0.0 22 53
- 1.204253 1 0 ack 40 ------- 0 2.0 0.0 22 53
r 1.205485 2 1 ack 40 ------- 0 2.0 0.0 22 54
+ 1.205485 1 0 ack 40 ------- 0 2.0 0.0 22 54
- 1.205485 1 0 ack 40 ------- 0 2.0 0.0 22 54
r 1.205632 1 0 ack 40 ------- 0 2.0 0.0 15 46
+ 1.205632 0 1 tcp 1540 ------- 0 0.0 2.0 31 58
- 1.205632 0 1 tcp 1540 ------- 0 0.0 2.0 31 58
+ 1.205632 0 1 tcp 1540 ------- 0 0.0 2.0 32 59
- 1.205755 0 1 tcp 1540 ------- 0 0.0 2.0 32 59
r 1.206717 2 1 ack 40 ------- 0 2.0 0.0 22 55
+ 1.206717 1 0 ack 40 ------- 0 2.0 0.0 22 55
- 1.206717 1 0 ack 40 ------- 0 2.0 0.0 22 55
r 1.206864 1 0 ack 40 ------- 0 2.0 0.0 16 47
+ 1.206864 0 1 tcp 1540 ------- 0 0.0 2.0 33 60
- 1.206864 0 1 tcp 1540 ------- 0 0.0 2.0 33 60
+ 1.206864 0 1 tcp 1540 ------- 0 0.0 2.0 34 61
- 1.206987 0 1 tcp 1540 ------- 0 0.0 2.0 34 61
r 1.207949 2 1 ack 40 ------- 0 2.0 0.0 22 56
+ 1.207949 1 0 ack 40 ------- 0 2.0 0.0 22 56
- 1.207949 1 0 ack 40 ------- 0 2.0 0.0 22 56
r 1.208096 1 0 ack 40 ------- 0 2.0 0.0 17 48
+ 1.208096 0 1 tcp 1540 ------- 0 0.0 2.0 35 62
- 1.208096 0 1 tcp 1540 ------- 0 0.0 2.0 35 62
+ 1.208096 0 1 tcp 1540 ------- 0 0.0 2.0 36 63
- 1.208219 0 1 tcp 1540 ------- 0 0.0 2.0 36 63
r 1.209181 2 1 ack 40 ------- 0 2.0 0.0 22 57
+ 1.209181 1 0 ack 40 ------- 0 2.0 0.0 22 57
- 1.209181 1 0 ack 40 ------- 0 2.0 0.0 22 57
r 1.209328 1 0 ack 40 ------- 0 2.0 0.0 18 49
+ 1.209328 0 1 tcp 1540 ------- 0 0.0 2.0 37 64
- 1.209328 0 1 tcp 1540 ------- 0 0.0 2.0 37 64
+ 1.209328 0 1 tcp 1540 ------- 0 0.0 2.0 38 65
- 1.209451 0 1 tcp 1540 ------- 0 0.0 2.0 38 65
r 1.21056 1 0 ack 40 ------- 0 2.0 0.0 19 50
+ 1.21056 0 1 tcp 1540 ------- 0 0.0 2.0 39 66
- 1.21056 0 1 tcp 1540 ------- 0 0.0 2.0 39 66
r 1.211792 1 0 ack 40 ------- 0 2.0 0.0 20 51
+ 1.211792 0 1 tcp 1540 ------- 0 0.0 2.0 40 67
- 1.211792 0 1 tcp 1540 ------- 0 0.0 2.0 40 67
r 1.213024 1 0 ack 40 ------- 0 2.0 0.0 21 52
+ 1.213024 0 1 tcp 1540 ------- 0 0.0 2.0 41 68
- 1.213024 0 1 tcp 1540 ------- 0 0.0 2.0 41 68
r 1.214256 1 0 ack 40 ------- 0 2.0 0.0 22 53
+ 1.214256 0 1 tcp 1540 ------- 0 0.0 2.0 42 69
- 1.214256 0 1 tcp 1540 ------- 0 0.0 2.0 42 69
r 1.215488 1 0 ack 40 ------- 0 2.0 0.0 22 54
r 1.215755 0 1 tcp 1540 ------- 0 0.0 2.0 31 58
+ 1.215755 1 2 tcp 1540 ------- 0 0.0 2.0 31 58
- 1.215755 1 2 tcp 1540 ------- 0 0.0 2.0 31 58
r 1.215878 0 1 tcp 1540 ------- 0 0.0 2.0 32 59
+ 1.215878 1 2 tcp 1540 ------- 0 0.0 2.0 32 59
r 1.21672 1 0 ack 40 ------- 0 2.0 0.0 22 55
r 1.216987 0 1 tcp 1540 ------- 0 0.0 2.0 33 60
+ 1.216987 1 2 tcp 1540 ------- 0 0.0 2.0 33 60
- 1.216987 1 2 tcp 1540 ------- 0 0.0 2.0 32 59
r 1.21711 0 1 tcp 1540 ------- 0 0.0 2.0 34 61
+ 1.21711 1 2 tcp 1540 ------- 0 0.0 2.0 34 61
r 1.217952 1 0 ack 40 ------- 0 2.0 0.0 22 56
+ 1.217952 0 1 tcp 1540 ---A--- 0 0.0 2.0 23 70
- 1.217952 0 1 tcp 1540 ---A--- 0 0.0 2.0 23 70
r 1.218219 0 1 tcp 1540 ------- 0 0.0 2.0 35 62
+ 1.218219 1 2 tcp 1540 ------- 0 0.0 2.0 35 62
- 1.218219 1 2 tcp 1540 ------- 0 0.0 2.0 33 60
r 1.218342 0 1 tcp 1540 ------- 0 0.0 2.0 36 63
+ 1.218342 1 2 tcp 1540 ------- 0 0.0 2.0 36 63
r 1.219184 1 0 ack 40 ------- 0 2.0 0.0 22 57
r 1.219451 0 1 tcp 1540 ------- 0 0.0 2.0 37 64
+ 1.219451 1 2 tcp 1540 ------- 0 0.0 2.0 37 64
- 1.219451 1 2 tcp 1540 ------- 0 0.0 2.0 34 61
r 1.219574 0 1 tcp 1540 ------- 0 0.0 2.0 38 65
+ 1.219574 1 2 tcp 1540 ------- 0 0.0 2.0 38 65
r 1.220683 0 1 tcp 1540 ------- 0 0.0 2.0 39 66
+ 1.220683 1 2 tcp 1540 ------- 0 0.0 2.0 39 66
d 1.220683 1 2 tcp 1540 ------- 0 0.0 2.0 39 66
- 1.220683 1 2 tcp 1540 ------- 0 0.0 2.0 35 62
r 1.221915 0 1 tcp 1540 ------- 0 0.0 2.0 40 67
+ 1.221915 1 2 tcp 1540 ------- 0 0.0 2.0 40 67
- 1.221915 1 2 tcp 1540 ------- 0 0.0 2.0 36 63
r 1.223147 0 1 tcp 1540 ------- 0 0.0 2.0 41 68
+ 1.223147 1 2 tcp 1540 ------- 0 0.0 2.0 41 68
- 1.223147 1 2 tcp 1540 ------- 0 0.0 2.0 37 64
r 1.224379 0 1 tcp 1540 ------- 0 0.0 2.0 42 69
+ 1.224379 1 2 tcp 1540 ------- 0 0.0 2.0 42 69
- 1.224379 1 2 tcp 1540 ------- 0 0.0 2.0 38 65
- 1.225611 1 2 tcp 1540 ------- 0 0.0 2.0 40 67
- 1.226843 1 2 tcp 1540 ------- 0 0.0 2.0 41 68
r 1.226987 1 2 tcp 1540 ------- 0 0.0 2.0 31 58
+ 1.226987 2 1 ack 40 ------- 0 2.0 0.0 22 71
- 1.226987 2 1 ack 40 ------- 0 2.0 0.0 22 71
r 1.228075 0 1 tcp 1540 ---A--- 0 0.0 2.0 23 70
+ 1.228075 1 2 tcp 1540 ---A--- 0 0.0 2.0 23 70
- 1.228075 1 2 tcp 1540 ------- 0 0.0 2.0 42 69
r 1.228219 1 2 tcp 1540 ------- 0 0.0 2.0 32 59
+ 1.228219 2 1 ack 40 ------- 0 2.0 0.0 22 72
- 1.228219 2 1 ack 40 ------- 0 2.0 0.0 22 72
- 1.229307 1 2 tcp 1540 ---A--- 0 0.0 2.0 23 70
r 1.229451 1 2 tcp 1540 ------- 0 0.0 2.0 33 60
+ 1.229451 2 1 ack 40 ------- 0 2.0 0.0 22 73
- 1.229451 2 1 ack 40 ------- 0 2.0 0.0 22 73
r 1.230683 1 2 tcp 1540 ------- 0 0.0 2.0 34 61
+ 1.230683 2 1 ack 40 ------- 0 2.0 0.0 22 74
- 1.230683 2 1 ack 40 ------- 0 2.0 0.0 22 74
r 1.231915 1 2 tcp 1540 ------- 0 0.0 2.0 35 62
+ 1.231915 2 1 ack 40 ------- 0 2.0 0.0 22 75
- 1.231915 2 1 ack 40 ------- 0 2.0 0.0 22 75
r 1.233147 1 2 tcp 1540 ------- 0 0.0 2.0 36 63
+ 1.233147 2 1 ack 40 ------- 0 2.0 0.0 22 76
- 1.233147 2 1 ack 40 ------- 0 2.0 0.0 22 76
r 1.234379 1 2 tcp 1540 ------- 0 0.0 2.0 37 64
+ 1.234379 2 1 ack 40 ------- 0 2.0 0.0 22 77
- 1.234379 2 1 ack 40 ------- 0 2.0 0.0 22 77
r 1.235611 1 2 tcp 1540 ------- 0 0.0 2.0 38 65
+ 1.235611 2 1 ack 40 ------- 0 2.0 0.0 22 78
- 1.235611 2 1 ack 40 ------- 0 2.0 0.0 22 78
r 1.236843 1 2 tcp 1540 ------- 0 0.0 2.0 40 67
+ 1.236843 2 1 ack 40 ------- 0 2.0 0.0 22 79
- 1.236843 2 1 ack 40 ------- 0 2.0 0.0 22 79
r 1.237019 2 1 ack 40 ------- 0 2.0 0.0 22 71
+ 1.237019 1 0 ack 40 ------- 0 2.0 0.0 22 71
- 1.237019 1 0 ack 40 ------- 0 2.0 0.0 22 71
r 1.238075 1 2 tcp 1540 ------- 0 0.0 2.0 41 68
+ 1.238075 2 1 ack 40 ------- 0 2.0 0.0 22 80
- 1.238075 2 1 ack 40 ------- 0 2.0 0.0 22 80
r 1.238251 2 1 ack 40 ------- 0 2.0 0.0 22 72
+ 1.238251 1 0 ack 40 ------- 0 2.0 0.0 22 72
- 1.238251 1 0 ack 40 ------- 0 2.0 0.0 22 72
r 1.239307 1 2 tcp 1540 ------- 0 0.0 2.0 42 69
+ 1.239307 2 1 ack 40 ------- 0 2.0 0.0 22 81
- 1.239307 2 1 ack 40 ------- 0 2.0 0.0 22 81
r 1.239483 2 1 ack 40 ------- 0 2.0 0.0 22 73
+ 1.239483 1 0 ack 40 ------- 0 2.0 0.0 22 73
- 1.239483 1 0 ack 40 ------- 0 2.0 0.0 22 73
r 1.240539 1 2 tcp 1540 ---A--- 0 0.0 2.0 23 70
+ 1.240539 2 1 ack 40 ------- 0 2.0 0.0 24 82
- 1.240539 2 1 ack 40 ------- 0 2.0 0.0 24 82
r 1.240715 2 1 ack 40 ------- 0 2.0 0.0 22 74
+ 1.240715 1 0 ack 40 ------- 0 2.0 0.0 22 74
- 1.240715 1 0 ack 40 ------- 0 2.0 0.0 22 74
r 1.241947 2 1 ack 40 ------- 0 2.0 0.0 22 75
+ 1.241947 1 0 ack 40 ------- 0 2.0 0.0 22 75
- 1.241947 1 0 ack 40 ------- 0 2.0 0.0 22 75
r 1.243179 2 1 ack 40 ------- 0 2.0 0.0 22 76
+ 1.243179 1 0 ack 40 ------- 0 2.0 0.0 22 76
- 1.243179 1 0 ack 40 ------- 0 2.0 0.0 22 76
r 1.244411 2 1 ack 40 ------- 0 2.0 0.0 22 77
+ 1.244411 1 0 ack 40 ------- 0 2.0 0.0 22 77
- 1.244411 1 0 ack 40 ------- 0 2.0 0.0 22 77
r 1.245643 2 1 ack 40 ------- 0 2.0 0.0 22 78
+ 1.245643 1 0 ack 40 ------- 0 2.0 0.0 22 78
- 1.245643 1 0 ack 40 ------- 0 2.0 0.0 22 78
r 1.246875 2 1 ack 40 ------- 0 2.0 0.0 22 79
+ 1.246875 1 0 ack 40 ------- 0 2.0 0.0 22 79
- 1.246875 1 0 ack 40 ------- 0 2.0 0.0 22 79
r 1.247022 1 0 ack 40 ------- 0 2.0 0.0 22 71
r 1.248107 2 1 ack 40 ------- 0 2.0 0.0 22 80
+ 1.248107 1 0 ack 40 ------- 0 2.0 0.0 22 80
- 1.248107 1 0 ack 40 ------- 0 2.0 0.0 22 80
r 1.248254 1 0 ack 40 ------- 0 2.0 0.0 22 72
r 1.249339 2 1 ack 40 ------- 0 2.0 0.0 22 81
+ 1.249339 1 0 ack 40 ------- 0 2.0 0.0 22 81
- 1.249339 1 0 ack 40 ------- 0 2.0 0.0 22 81
r 1.249486 1 0 ack 40 ------- 0 2.0 0.0 22 73
r 1.250571 2 1 ack 40 ------- 0 2.0 0.0 24 82
+ 1.250571 1 0 ack 40 ------- 0 2.0 0.0 24 82
- 1.250571 1 0 ack 40 ------- 0 2.0 0.0 24 82
r 1.250718 1 0 ack 40 ------- 0 2.0 0.0 22 74
r 1.25195 1 0 ack 40 ------- 0 2.0 0.0 22 75
r 1.253182 1 0 ack 40 ------- 0 2.0 0.0 22 76
r 1.254414 1 0 ack 40 ------- 0 2.0 0.0 22 77
r 1.255646 1 0 ack 40 ------- 0 2.0 0.0 22 78
r 1.256878 1 0 ack 40 ------- 0 2.0 0.0 22 79
r 1.25811 1 0 ack 40 ------- 0 2.0 0.0 22 80
r 1.259342 1 0 ack 40 ------- 0 2.0 0.0 22 81
r 1.260574 1 0 ack 40 ------- 0 2.0 0.0 24 82
+ 1.260574 0 1 tcp 1540 ------- 0 0.0 2.0 25 83
- 1.260574 0 1 tcp 1540 ------- 0 0.0 2.0 25 83
+ 1.260574 0 1 tcp 1540 ------- 0 0.0 2.0 26 84
- 1.260698 0 1 tcp 1540 ------- 0 0.0 2.0 26 84
r 1.270698 0 1 tcp 1540 ------- 0 0.0 2.0 25 83
+ 1.270698 1 2 tcp 1540 ------- 0 0.0 2.0 25 83
- 1.270698 1 2 tcp 1540 ------- 0 0.0 2.0 25 83
r 1.270821 0 1 tcp 1540 ------- 0 0.0 2.0 26 84
+ 1.270821 1 2 tcp 1540 ------- 0 0.0 2.0 26 84
- 1.27193 1 2 tcp 1540 ------- 0 0.0 2.0 26 84
r 1.28193 1 2 tcp 1540 ------- 0 0.0 2.0 25 83
+ 1.28193 2 1 ack 40 ------- 0 2.0 0.0 26 85
- 1.28193 2 1 ack 40 ------- 0 2.0 0.0 26 85
r 1.283162 1 2 tcp 1540 ------- 0 0.0 2.0 26 84
+ 1.283162 2 1 ack 40 ------- 0 2.0 0.0 26 86
- 1.283162 2 1 ack 40 ------- 0 2.0 0.0 26 86
r 1.291962 2 1 ack 40 ------- 0 2.0 0.0 26 85
+ 1.291962 1 0 ack 40 ------- 0 2.0 0.0 26 85
- 1.291962 1 0 ack 40 ------- 0 2.0 0.0 26 85
r 1.293194 2 1 ack 40 ------- 0 2.0 0.0 26 86
+ 1.293194 1 0 ack 40 ------- 0 2.0 0.0 26 86
- 1.293194 1 0 ack 40 ------- 0 2.0 0.0 26 86
r 1.301965 1 0 ack 40 ------- 0 2.0 0.0 26 85
+ 1.301965 0 1 tcp 1540 ------- 0 0.0 2.0 27 87
- 1.301965 0 1 tcp 1540 ------- 0 0.0 2.0 27 87
+ 1.301965 0 1 tcp 1540 ------- 0 0.0 2.0 28 88
+ 1.301965 0 1 tcp 1540 ------- 0 0.0 2.0 29 89
- 1.302088 0 1 tcp 1540 ------- 0 0.0 2.0 28 88
- 1.302211 0 1 tcp 1540 ------- 0 0.0 2.0 29 89
r 1.303197 1 0 ack 40 ------- 0 2.0 0.0 26 86
+ 1.303197 0 1 tcp 1540 ------- 0 0.0 2.0 30 90
- 1.303197 0 1 tcp 1540 ------- 0 0.0 2.0 30 90
r 1.312088 0 1 tcp 1540 ------- 0 0.0 2.0 27 87
+ 1.312088 1 2 tcp 1540 ------- 0 0.0 2.0 27 87
- 1.312088 1 2 tcp 1540 ------- 0 0.0 2.0 27 87
r 1.312211 0 1 tcp 1540 ------- 0 0.0 2.0 28 88
+ 1.312211 1 2 tcp 1540 ------- 0 0.0 2.0 28 88
r 1.312334 0 1 tcp 1540 ------- 0 0.0 2.0 29 89
+ 1.312334 1 2 tcp 1540 ------- 0 0.0 2.0 29 89
r 1.31332 0 1 tcp 1540 ------- 0 0.0 2.0 30 90
+ 1.31332 1 2 tcp 1540 ------- 0 0.0 2.0 30 90
- 1.31332 1 2 tcp 1540 ------- 0 0.0 2.0 28 88
- 1.314552 1 2 tcp 1540 ------- 0 0.0 2.0 29 89
- 1.315784 1 2 tcp 1540 ------- 0 0.0 2.0 30 90
r 1.32332 1 2 tcp 1540 ------- 0 0.0 2.0 27 87
+ 1.32332 2 1 ack 40 ------- 0 2.0 0.0 28 91
- 1.32332 2 1 ack 40 ------- 0 2.0 0.0 28 91
r 1.324552 1 2 tcp 1540 ------- 0 0.0 2.0 28 88
+ 1.324552 2 1 ack 40 ------- 0 2.0 0.0 28 92
- 1.324552 2 1 ack 40 ------- 0 2.0 0.0 28 92
r 1.325784 1 2 tcp 1540 ------- 0 0.0 2.0 29 89
+ 1.325784 2 1 ack 40 ------- 0 2.0 0.0 38 93
- 1.325784 2 1 ack 40 ------- 0 2.0 0.0 38 93
r 1.327016 1 2 tcp 1540 ------- 0 0.0 2.0 30 90
+ 1.327016 2 1 ack 40 ------- 0 2.0 0.0 38 94
- 1.327016 2 1 ack 40 ------- 0 2.0 0.0 38 94
r 1.333352 2 1 ack 40 ------- 0 2.0 0.0 28 91
+ 1.333352 1 0 ack 40 ------- 0 2.0 0.0 28 91
- 1.333352 1 0 ack 40 ------- 0 2.0 0.0 28 91
r 1.334584 2 1 ack 40 ------- 0 2.0 0.0 28 92
+ 1.334584 1 0 ack 40 ------- 0 2.0 0.0 28 92
- 1.334584 1 0 ack 40 ------- 0 2.0 0.0 28 92
r 1.335816 2 1 ack 40 ------- 0 2.0 0.0 38 93
+ 1.335816 1 0 ack 40 ------- 0 2.0 0.0 38 93
- 1.335816 1 0 ack 40 ------- 0 2.0 0.0 38 93
r 1.337048 2 1 ack 40 ------- 0 2.0 0.0 38 94
+ 1.337048 1 0 ack 40 ------- 0 2.0 0.0 38 94
- 1.337048 1 0 ack 40 ------- 0 2.0 0.0 38 94
r 1.343355 1 0 ack 40 ------- 0 2.0 0.0 28 91
+ 1.343355 0 1 tcp 1540 ------- 0 0.0 2.0 31 95
- 1.343355 0 1 tcp 1540 ------- 0 0.0 2.0 31 95
+ 1.343355 0 1 tcp 1540 ------- 0 0.0 2.0 32 96
- 1.343478 0 1 tcp 1540 ------- 0 0.0 2.0 32 96
r 1.344587 1 0 ack 40 ------- 0 2.0 0.0 28 92
+ 1.344587 0 1 tcp 1540 ------- 0 0.0 2.0 33 97
- 1.344587 0 1 tcp 1540 ------- 0 0.0 2.0 33 97
r 1.345819 1 0 ack 40 ------- 0 2.0 0.0 38 93
+ 1.345819 0 1 tcp 1540 ------- 0 0.0 2.0 39 98
- 1.345819 0 1 tcp 1540 ------- 0 0.0 2.0 39 98
+ 1.345819 0 1 tcp 1540 ------- 0 0.0 2.0 40 99
+ 1.345819 0 1 tcp 1540 ------- 0 0.0 2.0 41 100
+ 1.345819 0 1 tcp 1540 ------- 0 0.0 2.0 42 101
+ 1.345819 0 1 tcp 1540 ------- 0 0.0 2.0 43 102
- 1.345942 0 1 tcp 1540 ------- 0 0.0 2.0 40 99
- 1.346066 0 1 tcp 1540 ------- 0 0.0 2.0 41 100
- 1.346189 0 1 tcp 1540 ------- 0 0.0 2.0 42 101
- 1.346312 0 1 tcp 1540 ------- 0 0.0 2.0 43 102
r 1.347051 1 0 ack 40 ------- 0 2.0 0.0 38 94
+ 1.347051 0 1 tcp 1540 ------- 0 0.0 2.0 44 103
- 1.347051 0 1 tcp 1540 ------- 0 0.0 2.0 44 103
r 1.353478 0 1 tcp 1540 ------- 0 0.0 2.0 31 95
+ 1.353478 1 2 tcp 1540 ------- 0 0.0 2.0 31 95
- 1.353478 1 2 tcp 1540 ------- 0 0.0 2.0 31 95
r 1.353602 0 1 tcp 1540 ------- 0 0.0 2.0 32 96
+ 1.353602 1 2 tcp 1540 ------- 0 0.0 2.0 32 96
r 1.35471 0 1 tcp 1540 ------- 0 0.0 2.0 33 97
+ 1.35471 1 2 tcp 1540 ------- 0 0.0 2.0 33 97
- 1.35471 1 2 tcp 1540 ------- 0 0.0 2.0 32 96
r 1.355942 0 1 tcp 1540 ------- 0 0.0 2.0 39 98
+ 1.355942 1 2 tcp 1540 ------- 0 0.0 2.0 39 98
- 1.355942 1 2 tcp 1540 ------- 0 0.0 2.0 33 97
r 1.356066 0 1 tcp 1540 ------- 0 0.0 2.0 40 99
+ 1.356066 1 2 tcp 1540 ------- 0 0.0 2.0 40 99
r 1.356189 0 1 tcp 1540 ------- 0 0.0 2.0 41 100
+ 1.356189 1 2 tcp 1540 ------- 0 0.0 2.0 41 100
r 1.356312 0 1 tcp 1540 ------- 0 0.0 2.0 42 101
+ 1.356312 1 2 tcp 1540 ------- 0 0.0 2.0 42 101
r 1.356435 0 1 tcp 1540 ------- 0 0.0 2.0 43 102
+ 1.356435 1 2 tcp 1540 ------- 0 0.0 2.0 43 102
d 1.356435 1 2 tcp 1540 ------- 0 0.0 2.0 43 102
r 1.357174 0 1 tcp 1540 ------- 0 0.0 2.0 44 103
+ 1.357174 1 2 tcp 1540 ------- 0 0.0 2.0 44 103
d 1.357174 1 2 tcp 1540 ------- 0 0.0 2.0 44 103
- 1.357174 1 2 tcp 1540 ------- 0 0.0 2.0 39 98
- 1.358406 1 2 tcp 1540 ------- 0 0.0 2.0 40 99
- 1.359638 1 2 tcp 1540 ------- 0 0.0 2.0 41 100
- 1.36087 1 2 tcp 1540 ------- 0 0.0 2.0 42 101
r 1.36471 1 2 tcp 1540 ------- 0 0.0 2.0 31 95
+ 1.36471 2 1 ack 40 ------- 0 2.0 0.0 38 104
- 1.36471 2 1 ack 40 ------- 0 2.0 0.0 38 104
r 1.365942 1 2 tcp 1540 ------- 0 0.0 2.0 32 96
+ 1.365942 2 1 ack 40 ------- 0 2.0 0.0 38 105
- 1.365942 2 1 ack 40 ------- 0 2.0 0.0 38 105
r 1.367174 1 2 tcp 1540 ------- 0 0.0 2.0 33 97
+ 1.367174 2 1 ack 40 ------- 0 2.0 0.0 38 106
- 1.367174 2 1 ack 40 ------- 0 2.0 0.0 38 106
r 1.368406 1 2 tcp 1540 ------- 0 0.0 2.0 39 98
+ 1.368406 2 1 ack 40 ------- 0 2.0 0.0 42 107
- 1.368406 2 1 ack 40 ------- 0 2.0 0.0 42 107
r 1.369638 1 2 tcp 1540 ------- 0 0.0 2.0 40 99
+ 1.369638 2 1 ack 40 ------- 0 2.0 0.0 42 108
- 1.369638 2 1 ack 40 ------- 0 2.0 0.0 42 108
r 1.37087 1 2 tcp 1540 ------- 0 0.0 2.0 41 100
+ 1.37087 2 1 ack 40 ------- 0 2.0 0.0 42 109
- 1.37087 2 1 ack 40 ------- 0 2.0 0.0 42 109
r 1.372102 1 2 tcp 1540 ------- 0 0.0 2.0 42 101
+ 1.372102 2 1 ack 40 ------- 0 2.0 0.0 42 110
- 1.372102 2 1 ack 40 ------- 0 2.0 0.0 42 110
r 1.374742 2 1 ack 40 ------- 0 2.0 0.0 38 104
+ 1.374742 1 0 ack 40 ------- 0 2.0 0.0 38 104
- 1.374742 1 0 ack 40 ------- 0 2.0 0.0 38 104
r 1.375974 2 1 ack 40 ------- 0 2.0 0.0 38 105
+ 1.375974 1 0 ack 40 ------- 0 2.0 0.0 38 105
- 1.375974 1 0 ack 40 ------- 0 2.0 0.0 38 105
r 1.377206 2 1 ack 40 ------- 0 2.0 0.0 38 106
+ 1.377206 1 0 ack 40 ------- 0 2.0 0.0 38 106
- 1.377206 1 0 ack 40 ------- 0 2.0 0.0 38 106
r 1.378438 2 1 ack 40 ------- 0 2.0 0.0 42 107
+ 1.378438 1 0 ack 40 ------- 0 2.0 0.0 42 107