+ 0.5 0 3 ping 10000 ------- 0 0.0 4.0 -1 0
- 0.5 0 3 ping 10000 ------- 0 0.0 4.0 -1 0
+ 0.5 1 3 ping 10000 ------- 0 1.0 4.0 -1 1
- 0.5 1 3 ping 10000 ------- 0 1.0 4.0 -1 1
r 0.5108 0 3 ping 10000 ------- 0 0.0 4.0 -1 0
+ 0.5108 3 4 ping 10000 ------- 0 0.0 4.0 -1 0
- 0.5108 3 4 ping 10000 ------- 0 0.0 4.0 -1 0
r 0.5108 1 3 ping 10000 ------- 0 1.0 4.0 -1 1
+ 0.5108 3 4 ping 10000 ------- 0 1.0 4.0 -1 1
- 0.5116 3 4 ping 10000 ------- 0 1.0 4.0 -1 1
r 0.5216 3 4 ping 10000 ------- 0 0.0 4.0 -1 0
+ 0.5216 4 3 ping 64 ------- 0 4.0 1.0 -1 2
- 0.5216 4 3 ping 64 ------- 0 4.0 1.0 -1 2
r 0.5224 3 4 ping 10000 ------- 0 1.0 4.0 -1 1
+ 0.5224 4 3 ping 64 ------- 0 4.0 1.0 -1 3
- 0.5224 4 3 ping 64 ------- 0 4.0 1.0 -1 3
r 0.531605 4 3 ping 64 ------- 0 4.0 1.0 -1 2
+ 0.531605 3 1 ping 64 ------- 0 4.0 1.0 -1 2
- 0.531605 3 1 ping 64 ------- 0 4.0 1.0 -1 2
r 0.532405 4 3 ping 64 ------- 0 4.0 1.0 -1 3
+ 0.532405 3 1 ping 64 ------- 0 4.0 1.0 -1 3
- 0.532405 3 1 ping 64 ------- 0 4.0 1.0 -1 3
r 0.54161 3 1 ping 64 ------- 0 4.0 1.0 -1 2
r 0.54241 3 1 ping 64 ------- 0 4.0 1.0 -1 3
+ 0.6 0 3 ping 10000 ------- 0 0.0 4.0 -1 4
- 0.6 0 3 ping 10000 ------- 0 0.0 4.0 -1 4
+ 0.6 1 3 ping 10000 ------- 0 1.0 4.0 -1 5
- 0.6 1 3 ping 10000 ------- 0 1.0 4.0 -1 5
r 0.6108 0 3 ping 10000 ------- 0 0.0 4.0 -1 4
+ 0.6108 3 4 ping 10000 ------- 0 0.0 4.0 -1 4
- 0.6108 3 4 ping 10000 ------- 0 0.0 4.0 -1 4
r 0.6108 1 3 ping 10000 ------- 0 1.0 4.0 -1 5
+ 0.6108 3 4 ping 10000 ------- 0 1.0 4.0 -1 5
- 0.6116 3 4 ping 10000 ------- 0 1.0 4.0 -1 5
r 0.6216 3 4 ping 10000 ------- 0 0.0 4.0 -1 4
+ 0.6216 4 3 ping 64 ------- 0 4.0 1.0 -1 6
- 0.6216 4 3 ping 64 ------- 0 4.0 1.0 -1 6
r 0.6224 3 4 ping 10000 ------- 0 1.0 4.0 -1 5
+ 0.6224 4 3 ping 64 ------- 0 4.0 1.0 -1 7
- 0.6224 4 3 ping 64 ------- 0 4.0 1.0 -1 7
r 0.631605 4 3 ping 64 ------- 0 4.0 1.0 -1 6
+ 0.631605 3 1 ping 64 ------- 0 4.0 1.0 -1 6
- 0.631605 3 1 ping 64 ------- 0 4.0 1.0 -1 6
r 0.632405 4 3 ping 64 ------- 0 4.0 1.0 -1 7
+ 0.632405 3 1 ping 64 ------- 0 4.0 1.0 -1 7
- 0.632405 3 1 ping 64 ------- 0 4.0 1.0 -1 7
r 0.64161 3 1 ping 64 ------- 0 4.0 1.0 -1 6
r 0.64241 3 1 ping 64 ------- 0 4.0 1.0 -1 7
+ 0.7 0 3 ping 10000 ------- 0 0.0 4.0 -1 8
- 0.7 0 3 ping 10000 ------- 0 0.0 4.0 -1 8
+ 0.7 1 3 ping 10000 ------- 0 1.0 4.0 -1 9
- 0.7 1 3 ping 10000 ------- 0 1.0 4.0 -1 9
r 0.7108 0 3 ping 10000 ------- 0 0.0 4.0 -1 8
+ 0.7108 3 4 ping 10000 ------- 0 0.0 4.0 -1 8
- 0.7108 3 4 ping 10000 ------- 0 0.0 4.0 -1 8
r 0.7108 1 3 ping 10000 ------- 0 1.0 4.0 -1 9
+ 0.7108 3 4 ping 10000 ------- 0 1.0 4.0 -1 9
- 0.7116 3 4 ping 10000 ------- 0 1.0 4.0 -1 9
r 0.7216 3 4 ping 10000 ------- 0 0.0 4.0 -1 8
+ 0.7216 4 3 ping 64 ------- 0 4.0 1.0 -1 10
- 0.7216 4 3 ping 64 ------- 0 4.0 1.0 -1 10
r 0.7224 3 4 ping 10000 ------- 0 1.0 4.0 -1 9
+ 0.7224 4 3 ping 64 ------- 0 4.0 1.0 -1 11
- 0.7224 4 3 ping 64 ------- 0 4.0 1.0 -1 11
r 0.731605 4 3 ping 64 ------- 0 4.0 1.0 -1 10
+ 0.731605 3 1 ping 64 ------- 0 4.0 1.0 -1 10
- 0.731605 3 1 ping 64 ------- 0 4.0 1.0 -1 10
r 0.732405 4 3 ping 64 ------- 0 4.0 1.0 -1 11
+ 0.732405 3 1 ping 64 ------- 0 4.0 1.0 -1 11
- 0.732405 3 1 ping 64 ------- 0 4.0 1.0 -1 11
r 0.74161 3 1 ping 64 ------- 0 4.0 1.0 -1 10
r 0.74241 3 1 ping 64 ------- 0 4.0 1.0 -1 11
+ 0.8 0 3 ping 10000 ------- 0 0.0 4.0 -1 12
- 0.8 0 3 ping 10000 ------- 0 0.0 4.0 -1 12
+ 0.8 1 3 ping 10000 ------- 0 1.0 4.0 -1 13
- 0.8 1 3 ping 10000 ------- 0 1.0 4.0 -1 13
r 0.8108 0 3 ping 10000 ------- 0 0.0 4.0 -1 12
+ 0.8108 3 4 ping 10000 ------- 0 0.0 4.0 -1 12
- 0.8108 3 4 ping 10000 ------- 0 0.0 4.0 -1 12
r 0.8108 1 3 ping 10000 ------- 0 1.0 4.0 -1 13
+ 0.8108 3 4 ping 10000 ------- 0 1.0 4.0 -1 13
- 0.8116 3 4 ping 10000 ------- 0 1.0 4.0 -1 13
r 0.8216 3 4 ping 10000 ------- 0 0.0 4.0 -1 12
+ 0.8216 4 3 ping 64 ------- 0 4.0 1.0 -1 14
- 0.8216 4 3 ping 64 ------- 0 4.0 1.0 -1 14
r 0.8224 3 4 ping 10000 ------- 0 1.0 4.0 -1 13
+ 0.8224 4 3 ping 64 ------- 0 4.0 1.0 -1 15
- 0.8224 4 3 ping 64 ------- 0 4.0 1.0 -1 15
r 0.831605 4 3 ping 64 ------- 0 4.0 1.0 -1 14
+ 0.831605 3 1 ping 64 ------- 0 4.0 1.0 -1 14
- 0.831605 3 1 ping 64 ------- 0 4.0 1.0 -1 14
r 0.832405 4 3 ping 64 ------- 0 4.0 1.0 -1 15
+ 0.832405 3 1 ping 64 ------- 0 4.0 1.0 -1 15
- 0.832405 3 1 ping 64 ------- 0 4.0 1.0 -1 15
r 0.84161 3 1 ping 64 ------- 0 4.0 1.0 -1 14
r 0.84241 3 1 ping 64 ------- 0 4.0 1.0 -1 15
+ 0.9 0 3 ping 10000 ------- 0 0.0 4.0 -1 16
- 0.9 0 3 ping 10000 ------- 0 0.0 4.0 -1 16
+ 0.9 1 3 ping 10000 ------- 0 1.0 4.0 -1 17
- 0.9 1 3 ping 10000 ------- 0 1.0 4.0 -1 17
r 0.9108 0 3 ping 10000 ------- 0 0.0 4.0 -1 16
+ 0.9108 3 4 ping 10000 ------- 0 0.0 4.0 -1 16
- 0.9108 3 4 ping 10000 ------- 0 0.0 4.0 -1 16
r 0.9108 1 3 ping 10000 ------- 0 1.0 4.0 -1 17
+ 0.9108 3 4 ping 10000 ------- 0 1.0 4.0 -1 17
- 0.9116 3 4 ping 10000 ------- 0 1.0 4.0 -1 17
r 0.9216 3 4 ping 10000 ------- 0 0.0 4.0 -1 16
+ 0.9216 4 3 ping 64 ------- 0 4.0 1.0 -1 18
- 0.9216 4 3 ping 64 ------- 0 4.0 1.0 -1 18
r 0.9224 3 4 ping 10000 ------- 0 1.0 4.0 -1 17
+ 0.9224 4 3 ping 64 ------- 0 4.0 1.0 -1 19
- 0.9224 4 3 ping 64 ------- 0 4.0 1.0 -1 19
r 0.931605 4 3 ping 64 ------- 0 4.0 1.0 -1 18
+ 0.931605 3 1 ping 64 ------- 0 4.0 1.0 -1 18
- 0.931605 3 1 ping 64 ------- 0 4.0 1.0 -1 18
r 0.932405 4 3 ping 64 ------- 0 4.0 1.0 -1 19
+ 0.932405 3 1 ping 64 ------- 0 4.0 1.0 -1 19
- 0.932405 3 1 ping 64 ------- 0 4.0 1.0 -1 19
r 0.94161 3 1 ping 64 ------- 0 4.0 1.0 -1 18
r 0.94241 3 1 ping 64 ------- 0 4.0 1.0 -1 19
+ 1 0 3 ping 10000 ------- 0 0.0 4.0 -1 20
- 1 0 3 ping 10000 ------- 0 0.0 4.0 -1 20
+ 1 1 3 ping 10000 ------- 0 1.0 4.0 -1 21
- 1 1 3 ping 10000 ------- 0 1.0 4.0 -1 21
r 1.0108 0 3 ping 10000 ------- 0 0.0 4.0 -1 20
+ 1.0108 3 4 ping 10000 ------- 0 0.0 4.0 -1 20
- 1.0108 3 4 ping 10000 ------- 0 0.0 4.0 -1 20
r 1.0108 1 3 ping 10000 ------- 0 1.0 4.0 -1 21
+ 1.0108 3 4 ping 10000 ------- 0 1.0 4.0 -1 21
- 1.0116 3 4 ping 10000 ------- 0 1.0 4.0 -1 21
r 1.0216 3 4 ping 10000 ------- 0 0.0 4.0 -1 20
+ 1.0216 4 3 ping 64 ------- 0 4.0 1.0 -1 22
- 1.0216 4 3 ping 64 ------- 0 4.0 1.0 -1 22
r 1.0224 3 4 ping 10000 ------- 0 1.0 4.0 -1 21
+ 1.0224 4 3 ping 64 ------- 0 4.0 1.0 -1 23
- 1.0224 4 3 ping 64 ------- 0 4.0 1.0 -1 23
r 1.031605 4 3 ping 64 ------- 0 4.0 1.0 -1 22
+ 1.031605 3 1 ping 64 ------- 0 4.0 1.0 -1 22
- 1.031605 3 1 ping 64 ------- 0 4.0 1.0 -1 22
r 1.032405 4 3 ping 64 ------- 0 4.0 1.0 -1 23
+ 1.032405 3 1 ping 64 ------- 0 4.0 1.0 -1 23
- 1.032405 3 1 ping 64 ------- 0 4.0 1.0 -1 23
r 1.04161 3 1 ping 64 ------- 0 4.0 1.0 -1 22
r 1.04241 3 1 ping 64 ------- 0 4.0 1.0 -1 23
+ 1.1 0 3 ping 10000 ------- 0 0.0 4.0 -1 24
- 1.1 0 3 ping 10000 ------- 0 0.0 4.0 -1 24
+ 1.1 1 3 ping 10000 ------- 0 1.0 4.0 -1 25
- 1.1 1 3 ping 10000 ------- 0 1.0 4.0 -1 25
r 1.1108 0 3 ping 10000 ------- 0 0.0 4.0 -1 24
+ 1.1108 3 4 ping 10000 ------- 0 0.0 4.0 -1 24
- 1.1108 3 4 ping 10000 ------- 0 0.0 4.0 -1 24
r 1.1108 1 3 ping 10000 ------- 0 1.0 4.0 -1 25
+ 1.1108 3 4 ping 10000 ------- 0 1.0 4.0 -1 25
- 1.1116 3 4 ping 10000 ------- 0 1.0 4.0 -1 25
r 1.1216 3 4 ping 10000 ------- 0 0.0 4.0 -1 24
+ 1.1216 4 3 ping 64 ------- 0 4.0 1.0 -1 26
- 1.1216 4 3 ping 64 ------- 0 4.0 1.0 -1 26
r 1.1224 3 4 ping 10000 ------- 0 1.0 4.0 -1 25
+ 1.1224 4 3 ping 64 ------- 0 4.0 1.0 -1 27
- 1.1224 4 3 ping 64 ------- 0 4.0 1.0 -1 27
r 1.131605 4 3 ping 64 ------- 0 4.0 1.0 -1 26
+ 1.131605 3 1 ping 64 ------- 0 4.0 1.0 -1 26
- 1.131605 3 1 ping 64 ------- 0 4.0 1.0 -1 26
r 1.132405 4 3 ping 64 ------- 0 4.0 1.0 -1 27
+ 1.132405 3 1 ping 64 ------- 0 4.0 1.0 -1 27
- 1.132405 3 1 ping 64 ------- 0 4.0 1.0 -1 27
r 1.14161 3 1 ping 64 ------- 0 4.0 1.0 -1 26
r 1.14241 3 1 ping 64 ------- 0 4.0 1.0 -1 27
+ 1.2 0 3 ping 10000 ------- 0 0.0 4.0 -1 28
- 1.2 0 3 ping 10000 ------- 0 0.0 4.0 -1 28
+ 1.2 1 3 ping 10000 ------- 0 1.0 4.0 -1 29
- 1.2 1 3 ping 10000 ------- 0 1.0 4.0 -1 29
r 1.2108 0 3 ping 10000 ------- 0 0.0 4.0 -1 28
+ 1.2108 3 4 ping 10000 ------- 0 0.0 4.0 -1 28
- 1.2108 3 4 ping 10000 ------- 0 0.0 4.0 -1 28
r 1.2108 1 3 ping 10000 ------- 0 1.0 4.0 -1 29
+ 1.2108 3 4 ping 10000 ------- 0 1.0 4.0 -1 29
- 1.2116 3 4 ping 10000 ------- 0 1.0 4.0 -1 29
r 1.2216 3 4 ping 10000 ------- 0 0.0 4.0 -1 28
+ 1.2216 4 3 ping 64 ------- 0 4.0 1.0 -1 30
- 1.2216 4 3 ping 64 ------- 0 4.0 1.0 -1 30
r 1.2224 3 4 ping 10000 ------- 0 1.0 4.0 -1 29
+ 1.2224 4 3 ping 64 ------- 0 4.0 1.0 -1 31
- 1.2224 4 3 ping 64 ------- 0 4.0 1.0 -1 31
r 1.231605 4 3 ping 64 ------- 0 4.0 1.0 -1 30
+ 1.231605 3 1 ping 64 ------- 0 4.0 1.0 -1 30
- 1.231605 3 1 ping 64 ------- 0 4.0 1.0 -1 30
r 1.232405 4 3 ping 64 ------- 0 4.0 1.0 -1 31
+ 1.232405 3 1 ping 64 ------- 0 4.0 1.0 -1 31
- 1.232405 3 1 ping 64 ------- 0 4.0 1.0 -1 31
r 1.24161 3 1 ping 64 ------- 0 4.0 1.0 -1 30
r 1.24241 3 1 ping 64 ------- 0 4.0 1.0 -1 31
