+ 0.5 0 1 ping 10000 ------- 0 0.0 1.0 -1 0
- 0.5 0 1 ping 10000 ------- 0 0.0 1.0 -1 0
+ 0.5 1 4 ping 10000 ------- 0 1.0 4.0 -1 1
- 0.5 1 4 ping 10000 ------- 0 1.0 4.0 -1 1
r 0.5108 0 1 ping 10000 ------- 0 0.0 1.0 -1 0
+ 0.5108 1 4 ping 10000 ------- 0 1.0 4.0 -1 2
- 0.5108 1 4 ping 10000 ------- 0 1.0 4.0 -1 2
r 0.5108 1 4 ping 10000 ------- 0 1.0 4.0 -1 1
+ 0.5108 4 1 ping 64 ------- 0 4.0 1.0 -1 3
- 0.5108 4 1 ping 64 ------- 0 4.0 1.0 -1 3
r 0.520805 4 1 ping 64 ------- 0 4.0 1.0 -1 3
r 0.5216 1 4 ping 10000 ------- 0 1.0 4.0 -1 2
+ 0.6 0 1 ping 10000 ------- 0 0.0 1.0 -1 4
- 0.6 0 1 ping 10000 ------- 0 0.0 1.0 -1 4
+ 0.6 1 4 ping 10000 ------- 0 1.0 4.0 -1 5
- 0.6 1 4 ping 10000 ------- 0 1.0 4.0 -1 5
r 0.6108 0 1 ping 10000 ------- 0 0.0 1.0 -1 4
+ 0.6108 1 4 ping 10000 ------- 0 1.0 4.0 -1 6
- 0.6108 1 4 ping 10000 ------- 0 1.0 4.0 -1 6
r 0.6108 1 4 ping 10000 ------- 0 1.0 4.0 -1 5
+ 0.6108 4 1 ping 64 ------- 0 4.0 1.0 -1 7
- 0.6108 4 1 ping 64 ------- 0 4.0 1.0 -1 7
r 0.620805 4 1 ping 64 ------- 0 4.0 1.0 -1 7
r 0.6216 1 4 ping 10000 ------- 0 1.0 4.0 -1 6
+ 0.7 0 1 ping 10000 ------- 0 0.0 1.0 -1 8
- 0.7 0 1 ping 10000 ------- 0 0.0 1.0 -1 8
+ 0.7 1 4 ping 10000 ------- 0 1.0 4.0 -1 9
- 0.7 1 4 ping 10000 ------- 0 1.0 4.0 -1 9
r 0.7108 0 1 ping 10000 ------- 0 0.0 1.0 -1 8
+ 0.7108 1 4 ping 10000 ------- 0 1.0 4.0 -1 10
- 0.7108 1 4 ping 10000 ------- 0 1.0 4.0 -1 10
r 0.7108 1 4 ping 10000 ------- 0 1.0 4.0 -1 9
+ 0.7108 4 1 ping 64 ------- 0 4.0 1.0 -1 11
- 0.7108 4 1 ping 64 ------- 0 4.0 1.0 -1 11
r 0.720805 4 1 ping 64 ------- 0 4.0 1.0 -1 11
r 0.7216 1 4 ping 10000 ------- 0 1.0 4.0 -1 10
+ 0.8 0 1 ping 10000 ------- 0 0.0 1.0 -1 12
- 0.8 0 1 ping 10000 ------- 0 0.0 1.0 -1 12
+ 0.8 1 4 ping 10000 ------- 0 1.0 4.0 -1 13
- 0.8 1 4 ping 10000 ------- 0 1.0 4.0 -1 13
r 0.8108 0 1 ping 10000 ------- 0 0.0 1.0 -1 12
+ 0.8108 1 4 ping 10000 ------- 0 1.0 4.0 -1 14
- 0.8108 1 4 ping 10000 ------- 0 1.0 4.0 -1 14
r 0.8108 1 4 ping 10000 ------- 0 1.0 4.0 -1 13
+ 0.8108 4 1 ping 64 ------- 0 4.0 1.0 -1 15
- 0.8108 4 1 ping 64 ------- 0 4.0 1.0 -1 15
r 0.820805 4 1 ping 64 ------- 0 4.0 1.0 -1 15
r 0.8216 1 4 ping 10000 ------- 0 1.0 4.0 -1 14
+ 0.9 0 1 ping 10000 ------- 0 0.0 1.0 -1 16
- 0.9 0 1 ping 10000 ------- 0 0.0 1.0 -1 16
+ 0.9 1 4 ping 10000 ------- 0 1.0 4.0 -1 17
- 0.9 1 4 ping 10000 ------- 0 1.0 4.0 -1 17
r 0.9108 0 1 ping 10000 ------- 0 0.0 1.0 -1 16
+ 0.9108 1 4 ping 10000 ------- 0 1.0 4.0 -1 18
- 0.9108 1 4 ping 10000 ------- 0 1.0 4.0 -1 18
r 0.9108 1 4 ping 10000 ------- 0 1.0 4.0 -1 17
+ 0.9108 4 1 ping 64 ------- 0 4.0 1.0 -1 19
- 0.9108 4 1 ping 64 ------- 0 4.0 1.0 -1 19
r 0.920805 4 1 ping 64 ------- 0 4.0 1.0 -1 19
r 0.9216 1 4 ping 10000 ------- 0 1.0 4.0 -1 18
+ 1 0 1 ping 10000 ------- 0 0.0 1.0 -1 20
- 1 0 1 ping 10000 ------- 0 0.0 1.0 -1 20
+ 1 1 4 ping 10000 ------- 0 1.0 4.0 -1 21
- 1 1 4 ping 10000 ------- 0 1.0 4.0 -1 21
r 1.0108 0 1 ping 10000 ------- 0 0.0 1.0 -1 20
+ 1.0108 1 4 ping 10000 ------- 0 1.0 4.0 -1 22
- 1.0108 1 4 ping 10000 ------- 0 1.0 4.0 -1 22
r 1.0108 1 4 ping 10000 ------- 0 1.0 4.0 -1 21
+ 1.0108 4 1 ping 64 ------- 0 4.0 1.0 -1 23
- 1.0108 4 1 ping 64 ------- 0 4.0 1.0 -1 23
r 1.020805 4 1 ping 64 ------- 0 4.0 1.0 -1 23
r 1.0216 1 4 ping 10000 ------- 0 1.0 4.0 -1 22
+ 1.1 0 1 ping 10000 ------- 0 0.0 1.0 -1 24
- 1.1 0 1 ping 10000 ------- 0 0.0 1.0 -1 24
+ 1.1 1 4 ping 10000 ------- 0 1.0 4.0 -1 25
- 1.1 1 4 ping 10000 ------- 0 1.0 4.0 -1 25
r 1.1108 0 1 ping 10000 ------- 0 0.0 1.0 -1 24
+ 1.1108 1 4 ping 10000 ------- 0 1.0 4.0 -1 26
- 1.1108 1 4 ping 10000 ------- 0 1.0 4.0 -1 26
r 1.1108 1 4 ping 10000 ------- 0 1.0 4.0 -1 25
+ 1.1108 4 1 ping 64 ------- 0 4.0 1.0 -1 27
- 1.1108 4 1 ping 64 ------- 0 4.0 1.0 -1 27
r 1.120805 4 1 ping 64 ------- 0 4.0 1.0 -1 27
r 1.1216 1 4 ping 10000 ------- 0 1.0 4.0 -1 26
+ 1.2 0 1 ping 10000 ------- 0 0.0 1.0 -1 28
- 1.2 0 1 ping 10000 ------- 0 0.0 1.0 -1 28
+ 1.2 1 4 ping 10000 ------- 0 1.0 4.0 -1 29
- 1.2 1 4 ping 10000 ------- 0 1.0 4.0 -1 29
r 1.2108 0 1 ping 10000 ------- 0 0.0 1.0 -1 28
+ 1.2108 1 4 ping 10000 ------- 0 1.0 4.0 -1 30
- 1.2108 1 4 ping 10000 ------- 0 1.0 4.0 -1 30
r 1.2108 1 4 ping 10000 ------- 0 1.0 4.0 -1 29
+ 1.2108 4 1 ping 64 ------- 0 4.0 1.0 -1 31
- 1.2108 4 1 ping 64 ------- 0 4.0 1.0 -1 31
r 1.220805 4 1 ping 64 ------- 0 4.0 1.0 -1 31
r 1.2216 1 4 ping 10000 ------- 0 1.0 4.0 -1 30
